/*--------------------------------*- C++ -*----------------------------------*\
  =========                 |
  \\      /  F ield         | OpenFOAM: The Open Source CFD Toolbox
   \\    /   O peration     | Website:  https://openfoam.org
    \\  /    A nd           | Version:  10
     \\/     M anipulation  |
\*---------------------------------------------------------------------------*/
FoamFile
{
    format      ascii;
    class       volScalarField;
    location    "0.5";
    object      T.gas;
}
// * * * * * * * * * * * * * * * * * * * * * * * * * * * * * * * * * * * * * //

dimensions      [0 0 0 1 0 0 0];

internalField   nonuniform List<scalar> 
14000
(
341.720484
341.720484
341.720484
341.720484
341.720485
341.720486
341.720489
341.720492
341.720496
341.720501
341.720507
341.720515
341.720524
341.720535
341.720547
341.720561
341.720577
341.720594
341.720614
341.720636
341.72066
341.720687
341.720718
341.720752
341.720791
341.720834
341.720882
341.720937
341.720998
341.721068
341.721147
341.721239
341.721346
341.721473
341.721627
341.721818
341.722063
341.722396
341.72289
341.723953
341.728982
341.728984
341.728986
341.728989
341.728994
341.729
341.729008
341.729018
341.729031
341.729047
341.729065
341.729087
341.729113
341.729144
341.729179
341.729219
341.729263
341.729312
341.729366
341.729425
341.72949
341.729561
341.729638
341.729722
341.729814
341.729916
341.73003
341.730156
341.730295
341.730446
341.730613
341.730801
341.731013
341.731247
341.731505
341.731792
341.732115
341.732481
341.732913
341.733579
341.734369
341.734368
341.734369
341.73437
341.734372
341.734374
341.734378
341.734382
341.734388
341.734395
341.734403
341.734413
341.734423
341.734435
341.734447
341.734461
341.734475
341.734489
341.734504
341.734519
341.734535
341.734552
341.734569
341.734587
341.734604
341.734619
341.734628
341.734633
341.734634
341.734632
341.734625
341.734608
341.734581
341.734543
341.734497
341.734441
341.73437
341.734284
341.734162
341.733942
341.735098
341.735096
341.735094
341.735091
341.735088
341.735086
341.735083
341.735079
341.735075
341.73507
341.735064
341.735057
341.735049
341.73504
341.73503
341.735018
341.735005
341.73499
341.734974
341.734957
341.734938
341.734915
341.73489
341.73486
341.734825
341.734785
341.73474
341.73469
341.73463
341.734558
341.734469
341.73436
341.734224
341.734054
341.733837
341.733556
341.733182
341.732669
341.731917
341.730375
341.73418
341.734178
341.734174
341.734168
341.734161
341.734152
341.73414
341.734126
341.734109
341.734088
341.734063
341.734034
341.734
341.733961
341.733915
341.733863
341.733805
341.733739
341.733665
341.733581
341.733486
341.733378
341.733256
341.733116
341.732953
341.732765
341.732551
341.732303
341.732019
341.731693
341.731316
341.730878
341.730369
341.729771
341.729066
341.728226
341.727213
341.725978
341.724401
341.721742
341.729568
341.729563
341.729554
341.729539
341.729519
341.729492
341.729458
341.729416
341.729365
341.729304
341.729233
341.72915
341.729055
341.728948
341.728828
341.728694
341.728544
341.728377
341.728191
341.727985
341.727757
341.727505
341.727225
341.726918
341.726582
341.726212
341.725803
341.725352
341.724854
341.724304
341.723695
341.723022
341.722277
341.721448
341.720527
341.719497
341.718343
341.717048
341.715554
341.713367
341.721985
341.721978
341.721964
341.721942
341.721911
341.721871
341.721821
341.721759
341.721685
341.721597
341.721494
341.721376
341.721242
341.721092
341.720924
341.72074
341.720536
341.720313
341.72007
341.719805
341.719516
341.719203
341.718865
341.718499
341.718107
341.717685
341.717235
341.716754
341.716243
341.715702
341.715131
341.714531
341.713903
341.713249
341.712576
341.711886
341.711221
341.710617
341.710107
341.709502
341.714044
341.714038
341.714024
341.714002
341.71397
341.713929
341.713878
341.713815
341.713741
341.713654
341.713554
341.713441
341.713316
341.713177
341.713025
341.71286
341.712681
341.71249
341.712288
341.712074
341.711847
341.71161
341.711365
341.711114
341.710854
341.710595
341.710344
341.710105
341.709883
341.709684
341.709513
341.709378
341.709285
341.709242
341.709245
341.709295
341.709368
341.70946
341.70956
341.709768
341.708508
341.708507
341.708503
341.708494
341.708482
341.708465
341.708445
341.70842
341.708391
341.708359
341.708322
341.708283
341.708243
341.708203
341.708163
341.708125
341.70809
341.708059
341.708034
341.708016
341.708008
341.708012
341.708027
341.708055
341.708098
341.708154
341.708219
341.708296
341.708384
341.708489
341.708616
341.708766
341.708941
341.709142
341.709388
341.709709
341.710139
341.710724
341.71156
341.7132
341.707248
341.707252
341.707256
341.70726
341.707264
341.707269
341.707275
341.707281
341.707289
341.7073
341.707314
341.707331
341.707352
341.707376
341.707405
341.70744
341.70748
341.707528
341.707582
341.707646
341.707718
341.707801
341.707896
341.708007
341.708138
341.708294
341.70848
341.708701
341.708967
341.709283
341.709655
341.7101
341.710633
341.711267
341.712019
341.712905
341.713945
341.715159
341.716629
341.718983
341.707537
341.707542
341.70755
341.707561
341.707575
341.707592
341.707614
341.707642
341.707676
341.707718
341.707768
341.707827
341.707898
341.707981
341.708077
341.708189
341.708319
341.708471
341.708646
341.708848
341.709083
341.709355
341.709663
341.710014
341.710409
341.710852
341.711345
341.711891
341.712493
341.713154
341.713874
341.714655
341.715499
341.716417
341.717416
341.718501
341.719679
341.720956
341.722379
341.724411
341.710449
341.71046
341.710481
341.710512
341.710555
341.71061
341.710679
341.710763
341.710865
341.710986
341.711127
341.711289
341.711475
341.711685
341.71192
341.712183
341.712473
341.71279
341.713137
341.713515
341.713923
341.714363
341.714837
341.715347
341.715894
341.716478
341.717097
341.717751
341.718438
341.719156
341.719902
341.720674
341.721467
341.722277
341.723098
341.723922
341.724736
341.725498
341.726147
341.72676
341.716423
341.716438
341.716468
341.716512
341.716572
341.716648
341.716743
341.716857
341.716993
341.717152
341.717334
341.71754
341.71777
341.718024
341.718302
341.718603
341.718927
341.719274
341.719642
341.720032
341.720442
341.720871
341.721318
341.72178
341.722254
341.722738
341.723227
341.723716
341.724201
341.724676
341.725132
341.725555
341.725925
341.726227
341.726449
341.726588
341.72665
341.726656
341.726627
341.726478
341.723076
341.723089
341.723116
341.723156
341.72321
341.723279
341.723364
341.723466
341.723585
341.72372
341.723872
341.724039
341.724222
341.724418
341.724627
341.724845
341.725071
341.725304
341.72554
341.725776
341.726012
341.726239
341.726452
341.726643
341.72681
341.726948
341.727052
341.727117
341.727141
341.727125
341.727074
341.726995
341.726897
341.726773
341.726623
341.726442
341.726198
341.725836
341.725271
341.724117
341.727827
341.727832
341.727842
341.727856
341.727875
341.727899
341.727927
341.727959
341.727994
341.728031
341.728069
341.728105
341.728139
341.728168
341.728189
341.728202
341.728206
341.728195
341.72817
341.728133
341.72808
341.728014
341.727939
341.727853
341.727755
341.727641
341.727506
341.727354
341.727184
341.726989
341.726757
341.726473
341.72612
341.725693
341.725175
341.724543
341.723776
341.722862
341.721747
341.719957
341.728867
341.728865
341.72886
341.728853
341.728844
341.728832
341.728817
341.7288
341.728779
341.728751
341.728717
341.728678
341.728631
341.728577
341.728515
341.728444
341.728363
341.728273
341.72817
341.728052
341.727915
341.727756
341.72757
341.727351
341.727096
341.7268
341.726463
341.72607
341.725622
341.725113
341.724538
341.723901
341.723204
341.722448
341.721629
341.720737
341.719764
341.718709
341.717535
341.715877
341.728516
341.728511
341.7285
341.728482
341.728457
341.728426
341.728385
341.728334
341.728271
341.728197
341.728108
341.728003
341.727881
341.727739
341.727573
341.727382
341.727162
341.726909
341.726623
341.726303
341.725945
341.725549
341.725116
341.724645
341.724138
341.723595
341.723018
341.722412
341.721772
341.721099
341.720395
341.719663
341.718908
341.718132
341.717339
341.716535
341.715725
341.714926
341.714144
341.713265
341.725939
341.725925
341.725894
341.725845
341.725778
341.725693
341.725587
341.725458
341.725305
341.725127
341.724923
341.724691
341.724432
341.724144
341.723831
341.72349
341.723125
341.722736
341.722322
341.721882
341.721417
341.720928
341.720416
341.719885
341.719338
341.718777
341.718207
341.71763
341.717051
341.716475
341.715906
341.715351
341.714818
341.714313
341.713847
341.713445
341.713138
341.712941
341.712828
341.712693
341.720629
341.720611
341.720571
341.720509
341.720425
341.720318
341.720188
341.720032
341.719851
341.719645
341.719413
341.719156
341.718877
341.718576
341.718256
341.717918
341.717565
341.7172
341.716823
341.716437
341.716045
341.71565
341.715256
341.714866
341.714485
341.714117
341.713768
341.713443
341.713147
341.712891
341.712689
341.71255
341.71248
341.712479
341.712532
341.712625
341.712756
341.712922
341.713168
341.713778
341.714641
341.714627
341.714594
341.714544
341.714475
341.714389
341.714286
341.714164
341.714025
341.713869
341.7137
341.713518
341.713326
341.713127
341.712923
341.712718
341.712514
341.712316
341.712126
341.711946
341.711785
341.711648
341.711539
341.711461
341.711419
341.711414
341.711448
341.711516
341.711613
341.711735
341.71188
341.712053
341.712255
341.712486
341.712767
341.713128
341.713575
341.714129
341.714852
341.716029
341.710204
341.710202
341.710192
341.710177
341.710157
341.710133
341.710105
341.710076
341.710046
341.710017
341.709992
341.709972
341.709959
341.709959
341.70997
341.709994
341.710037
341.710094
341.710165
341.710252
341.710352
341.710463
341.710587
341.710728
341.710888
341.711069
341.711267
341.71149
341.711747
341.712045
341.712393
341.712789
341.713234
341.713739
341.714313
341.71495
341.715652
341.71643
341.717322
341.718619
341.709013
341.70902
341.70903
341.709043
341.70906
341.709082
341.709109
341.70914
341.709178
341.709223
341.709277
341.709343
341.709419
341.709505
341.709602
341.709712
341.709833
341.709969
341.710124
341.710298
341.710497
341.710724
341.710984
341.711275
341.711601
341.711962
341.712359
341.712797
341.713276
341.71379
341.714334
341.714902
341.715499
341.716124
341.716776
341.717451
341.718147
341.718858
341.719593
341.720548
341.709121
341.709131
341.70915
341.709176
341.70921
341.709255
341.70931
341.70938
341.709465
341.709568
341.709687
341.709825
341.709985
341.710168
341.710377
341.710616
341.710882
341.711176
341.711498
341.711852
341.712233
341.712641
341.713072
341.713522
341.713991
341.714476
341.714978
341.715496
341.716025
341.716562
341.717102
341.717642
341.718177
341.718702
341.71921
341.719695
341.720143
341.720523
341.720812
341.72101
341.710994
341.711015
341.711056
341.711116
341.711196
341.711297
341.711421
341.71157
341.711744
341.711944
341.71217
341.712421
341.712696
341.712994
341.713313
341.713648
341.714002
341.714373
341.71476
341.715161
341.715574
341.715996
341.716425
341.716856
341.717287
341.717715
341.718137
341.718548
341.718945
341.719322
341.719674
341.719996
341.720281
341.720511
341.720672
341.720764
341.720798
341.720793
341.720754
341.720578
341.715092
341.715116
341.715163
341.715232
341.715323
341.715436
341.715573
341.715734
341.715917
341.716123
341.71635
341.716595
341.716857
341.717132
341.717418
341.717712
341.718012
341.718314
341.718616
341.718916
341.71921
341.719495
341.719768
341.720025
341.720264
341.720479
341.720667
341.720818
341.720925
341.720984
341.720996
341.720968
341.720908
341.720825
341.720719
341.72059
341.720415
341.720158
341.719775
341.719051
341.719674
341.719692
341.719726
341.719776
341.71984
341.71992
341.720013
341.72012
341.72024
341.720371
341.720511
341.720656
341.720803
341.720952
341.721097
341.721235
341.721366
341.721482
341.72158
341.721656
341.721709
341.721736
341.721735
341.721706
341.721652
341.721577
341.721481
341.72137
341.721242
341.721095
341.720931
341.720742
341.720516
341.720242
341.719921
341.719539
341.719089
341.718571
341.717952
341.716993
341.722818
341.722822
341.722827
341.722834
341.722842
341.72285
341.722858
341.722864
341.722866
341.722862
341.72285
341.722831
341.722802
341.722759
341.722706
341.722643
341.722566
341.72248
341.722386
341.722283
341.722167
341.722038
341.721894
341.721737
341.721564
341.721369
341.721149
341.720897
341.720613
341.720299
341.719953
341.71957
341.71915
341.718701
341.718223
341.717712
341.717168
341.716591
341.715965
341.715104
341.723375
341.723372
341.723364
341.723348
341.723327
341.723299
341.723264
341.723221
341.723169
341.723109
341.723039
341.722959
341.722868
341.722768
341.722654
341.722525
341.722383
341.722221
341.722039
341.721833
341.721605
341.721352
341.721075
341.720771
341.720441
341.720084
341.719702
341.719302
341.718889
341.718462
341.718022
341.71757
341.71711
341.716644
341.716176
341.715708
341.715246
341.714796
341.714362
341.71387
341.723011
341.723003
341.722982
341.722949
341.722903
341.722845
341.722773
341.722685
341.72258
341.722455
341.72231
341.722144
341.721952
341.721737
341.721499
341.72124
341.720957
341.720654
341.720332
341.719994
341.719641
341.719277
341.718903
341.718518
341.718124
341.717724
341.717321
341.716918
341.716518
341.716125
341.715741
341.71537
341.715015
341.71468
341.714371
341.714093
341.713855
341.713687
341.713589
341.713519
341.720936
341.720918
341.720875
341.720809
341.720722
341.720611
341.720477
341.720319
341.720138
341.719933
341.719707
341.71946
341.719198
341.718919
341.718625
341.718318
341.718
341.717674
341.717341
341.717005
341.716668
341.716331
341.715998
341.71567
341.71535
341.715041
341.714747
341.71447
341.714213
341.713981
341.713776
341.713602
341.713463
341.713372
341.713337
341.713354
341.713411
341.713498
341.713624
341.713908
341.717095
341.717076
341.717033
341.716966
341.716878
341.716769
341.716638
341.716488
341.716318
341.71613
341.715928
341.715712
341.715487
341.715254
341.715017
341.714778
341.714541
341.714307
341.714079
341.713859
341.71365
341.713454
341.713274
341.713112
341.712971
341.712854
341.712762
341.712702
341.712679
341.712693
341.712744
341.712821
341.712923
341.713049
341.713198
341.713377
341.713601
341.713876
341.714225
341.714791
341.712984
341.712974
341.712947
341.712906
341.712853
341.712787
341.712709
341.712622
341.712526
341.712423
341.712316
341.712208
341.712102
341.711998
341.711902
341.711815
341.711737
341.711675
341.711632
341.711607
341.711605
341.711624
341.711667
341.711733
341.711817
341.711917
341.712032
341.712163
341.712309
341.712472
341.712652
341.712858
341.713094
341.713358
341.713651
341.713975
341.714336
341.714733
341.715184
341.715829
341.710183
341.710186
341.710188
341.710189
341.71019
341.710192
341.710197
341.710205
341.710218
341.71024
341.710269
341.710306
341.710355
341.710415
341.710485
341.710564
341.710655
341.710753
341.710859
341.710976
341.711105
341.711245
341.711397
341.711562
341.711743
341.711943
341.712163
341.712403
341.712662
341.712939
341.713233
341.713545
341.713875
341.714218
341.714573
341.71494
341.715318
341.715703
341.716102
341.716625
341.709564
341.709573
341.709587
341.709606
341.709631
341.709663
341.709703
341.709753
341.709812
341.709879
341.709958
341.710047
341.710146
341.710256
341.710379
341.710517
341.710667
341.710834
341.711018
341.711219
341.711437
341.711673
341.711923
341.712188
341.712468
341.712762
341.713069
341.713383
341.7137
341.714021
341.714345
341.714668
341.714989
341.715305
341.715612
341.715908
341.716185
341.716435
341.716641
341.716798
341.70971
341.709725
341.709751
341.709788
341.709836
341.709897
341.709971
341.710061
341.710168
341.710292
341.710436
341.710599
341.710781
341.710979
341.711195
341.711426
341.711673
341.711933
341.712202
341.71248
341.712762
341.713049
341.71334
341.713633
341.713928
341.714221
341.714511
341.714794
341.715068
341.715331
341.715581
341.715815
341.71603
341.716222
341.716386
341.716507
341.716584
341.716623
341.716632
341.716567
341.711236
341.711258
341.711301
341.711363
341.711444
341.711544
341.711664
341.711804
341.711962
341.712137
341.712329
341.712533
341.71275
341.712977
341.713213
341.713456
341.713703
341.713951
341.7142
341.714447
341.71469
341.714927
341.715158
341.715379
341.715589
341.715786
341.715967
341.71613
341.716273
341.716394
341.716488
341.716549
341.716573
341.716567
341.716539
341.716494
341.716433
341.716341
341.716185
341.715871
341.714053
341.714074
341.714113
341.714168
341.714241
341.714329
341.714433
341.714551
341.714683
341.714827
341.71498
341.71514
341.715304
341.715471
341.715637
341.715801
341.71596
341.716112
341.716256
341.716389
341.71651
341.716617
341.716708
341.716783
341.716836
341.716865
341.716868
341.716845
341.716803
341.716744
341.71667
341.716582
341.716482
341.716365
341.716222
341.716048
341.715837
341.715583
341.715276
341.714787
341.716916
341.716928
341.716948
341.716976
341.717011
341.717052
341.717101
341.717154
341.717212
341.717271
341.717328
341.717385
341.717437
341.717482
341.717517
341.71754
341.71755
341.717547
341.717527
341.717493
341.717443
341.717381
341.717308
341.717225
341.717132
341.717029
341.716916
341.716792
341.716655
341.7165
341.716327
341.716135
341.715925
341.715692
341.715439
341.715166
341.714872
341.714555
341.714204
341.713705
341.718501
341.718501
341.718496
341.718487
341.718475
341.718458
341.718436
341.718407
341.718371
341.71833
341.718282
341.718226
341.718163
341.718093
341.718018
341.717937
341.717847
341.717749
341.717643
341.717529
341.717406
341.717272
341.717126
341.716966
341.71679
341.716599
341.716395
341.716179
341.715948
341.715704
341.715449
341.715188
341.714919
341.714644
341.714363
341.714078
341.713791
341.713504
341.713212
341.712843
341.718574
341.718572
341.718562
341.718544
341.718518
341.718484
341.718442
341.718393
341.718334
341.718265
341.718185
341.718094
341.717992
341.717877
341.717748
341.717606
341.717452
341.717284
341.717101
341.716907
341.7167
341.71648
341.716248
341.716005
341.715755
341.715503
341.715247
341.714989
341.71473
341.714471
341.714215
341.713963
341.713717
341.71348
341.713252
341.713037
341.712836
341.712655
341.712497
341.712358
341.718083
341.718074
341.71805
341.718011
341.717959
341.717891
341.717808
341.717707
341.717589
341.717455
341.717304
341.717138
341.716955
341.71676
341.716552
341.716336
341.716112
341.715882
341.715649
341.715411
341.71517
341.714926
341.714682
341.714439
341.7142
341.713965
341.713737
341.713518
341.713308
341.71311
341.712925
341.712755
341.712602
341.712468
341.712356
341.712268
341.712212
341.712198
341.712219
341.712276
341.716206
341.716192
341.716155
341.716099
341.716023
341.715929
341.715819
341.715693
341.71555
341.715392
341.715222
341.715039
341.714848
341.714649
341.714446
341.714241
341.714034
341.713829
341.713626
341.713426
341.713232
341.713044
341.712864
341.712693
341.712533
341.712386
341.712253
341.712136
341.712035
341.711952
341.711889
341.711846
341.711828
341.711839
341.711877
341.711936
341.712017
341.712115
341.712248
341.712469
341.713394
341.713383
341.713353
341.713307
341.713246
341.713171
341.713083
341.712983
341.712873
341.712753
341.712627
341.712496
341.712363
341.712229
341.712097
341.711969
341.711846
341.711729
341.711621
341.711522
341.711434
341.711357
341.711294
341.711244
341.711209
341.71119
341.71119
341.711209
341.711248
341.711305
341.711376
341.71146
341.711558
341.711667
341.711791
341.711937
341.712104
341.712293
341.712514
341.712843
341.710655
341.710653
341.710641
341.710622
341.710597
341.710565
341.71053
341.710491
341.710449
341.710406
341.710365
341.710327
341.710293
341.710263
341.710241
341.710228
341.710226
341.710235
341.710256
341.71029
341.710335
341.710394
341.710462
341.71054
341.710624
341.710719
341.710822
341.710932
341.711051
341.711179
341.71132
341.711474
341.711639
341.711814
341.711998
341.712194
341.7124
341.712615
341.712844
341.713154
341.709045
341.709053
341.709062
341.709074
341.709089
341.709106
341.709128
341.709156
341.709191
341.709232
341.709279
341.709332
341.709391
341.709458
341.709531
341.709608
341.709691
341.709781
341.709877
341.70998
341.71009
341.710206
341.710331
341.710466
341.71061
341.710762
341.710923
341.711091
341.711264
341.711443
341.711626
341.711813
341.712001
341.71219
341.712378
341.712563
341.712744
341.712914
341.71307
341.713216
341.708764
341.708774
341.708788
341.708806
341.708831
341.708862
341.708901
341.708948
341.709002
341.709065
341.709137
341.709218
341.709309
341.709409
341.709519
341.709639
341.709768
341.709906
341.710054
341.710209
341.710371
341.710539
341.710712
341.71089
341.711072
341.711257
341.711441
341.711623
341.711803
341.711979
341.71215
341.712314
341.712471
341.712617
341.712752
341.712871
341.712968
341.713039
341.713084
341.713085
341.708949
341.708964
341.708989
341.709024
341.709069
341.709126
341.709195
341.709277
341.709373
341.709481
341.709601
341.709733
341.709874
341.710026
341.710185
341.710351
341.71052
341.710691
341.710863
341.711036
341.711208
341.71138
341.711549
341.711715
341.711877
341.712032
341.712179
341.712318
341.712447
341.712565
341.71267
341.712761
341.712835
341.712888
341.712917
341.712926
341.712922
341.712907
341.712865
341.71273
341.710179
341.710197
341.71023
341.710276
341.710335
341.710407
341.710491
341.710586
341.710693
341.71081
341.710935
341.711067
341.711205
341.711346
341.711489
341.711631
341.711772
341.71191
341.712044
341.712173
341.712296
341.712411
341.712518
341.712616
341.712703
341.712779
341.712841
341.712891
341.712924
341.712937
341.712931
341.71291
341.712877
341.712832
341.712779
341.712713
341.712624
341.712504
341.712346
341.712092
341.712064
341.712078
341.712103
341.712136
341.712178
341.712228
341.712287
341.712353
341.712424
341.7125
341.712579
341.712659
341.712739
341.712817
341.712892
341.712961
341.713025
341.713081
341.71313
341.713169
341.713199
341.713216
341.71322
341.71321
341.713185
341.713147
341.713101
341.713045
341.71298
341.712907
341.712826
341.712735
341.712629
341.71251
341.712376
341.712222
341.712052
341.711861
341.711641
341.711312
341.713758
341.713765
341.713773
341.713781
341.713791
341.713801
341.713811
341.713821
341.713829
341.713835
341.713836
341.713832
341.713823
341.713806
341.713781
341.713749
341.713707
341.713658
341.713603
341.713542
341.713475
341.713401
341.713321
341.713235
341.713143
341.713044
341.712935
341.712817
341.712688
341.712549
341.712402
341.712244
341.712076
341.711901
341.711717
341.711525
341.711325
341.711116
341.710893
341.710584
341.714382
341.714382
341.714374
341.71436
341.714341
341.714316
341.714286
341.714251
341.71421
341.714164
341.714112
341.714055
341.713991
341.713921
341.713845
341.713763
341.713676
341.713582
341.713481
341.713372
341.713255
341.713128
341.712993
341.712849
341.712697
341.712539
341.712373
341.7122
341.712023
341.711843
341.711662
341.711478
341.711293
341.711108
341.710925
341.710743
341.710565
341.71039
341.710216
341.709993
341.714271
341.71427
341.714259
341.71424
341.714214
341.714179
341.714136
341.714083
341.714021
341.713949
341.713866
341.713773
341.71367
341.713556
341.713433
341.713301
341.713159
341.71301
341.712852
341.712687
341.712514
341.712338
341.71216
341.71198
341.711799
341.711617
341.711436
341.711256
341.71108
341.710907
341.710738
341.710576
341.710421
341.710274
341.710135
341.710008
341.709892
341.709791
341.709704
341.709626
341.713625
341.713617
341.713593
341.713555
341.713502
341.713436
341.713356
341.713262
341.713156
341.713037
341.712906
341.712765
341.712616
341.712461
341.7123
341.712136
341.711968
341.711798
341.711626
341.711453
341.71128
341.71111
341.710941
341.710777
341.710617
341.710463
341.710315
341.710175
341.710043
341.70992
341.709808
341.709707
341.709618
341.709542
341.709481
341.709435
341.709407
341.7094
341.709421
341.709479
341.711947
341.711938
341.711911
341.711867
341.711809
341.711737
341.711653
341.711556
341.711448
341.71133
341.711204
341.711072
341.710935
341.710795
341.710654
341.710513
341.710373
341.710236
341.710101
341.709971
341.709845
341.709726
341.709613
341.709508
341.709412
341.709325
341.709247
341.709181
341.709125
341.709082
341.70905
341.709032
341.709026
341.709035
341.709061
341.709103
341.709158
341.709227
341.709311
341.709449
341.709769
341.709764
341.709745
341.709714
341.709673
341.709623
341.709564
341.709497
341.709425
341.709347
341.709266
341.709183
341.709099
341.709017
341.708937
341.70886
341.708788
341.708721
341.708661
341.708607
341.708561
341.708523
341.708493
341.708472
341.708461
341.708459
341.708469
341.708489
341.708521
341.708563
341.708614
341.708672
341.708738
341.708811
341.708891
341.708978
341.709077
341.709184
341.7093
341.709453
341.707782
341.707784
341.70778
341.707772
341.707759
341.707744
341.707727
341.70771
341.707692
341.707675
341.70766
341.707647
341.707637
341.707631
341.707632
341.707638
341.707651
341.707672
341.707699
341.707733
341.707775
341.707824
341.707878
341.707938
341.708001
341.70807
341.708143
341.708221
341.708302
341.708387
341.708477
341.708573
341.708673
341.708776
341.708881
341.708989
341.709097
341.709204
341.709306
341.709408
341.706705
341.706714
341.706725
341.706737
341.706752
341.706771
341.706794
341.706822
341.706853
341.706889
341.706929
341.706974
341.707024
341.707078
341.707135
341.707196
341.707261
341.707331
341.707404
341.70748
341.707561
341.707644
341.707733
341.707826
341.707923
341.708025
341.708128
341.708234
341.70834
341.708447
341.708553
341.708658
341.708761
341.70886
341.708954
341.709042
341.70912
341.709187
341.709236
341.70926
341.706511
341.70652
341.706533
341.706549
341.706569
341.706595
341.706626
341.706663
341.706706
341.706757
341.706814
341.706878
341.706948
341.707025
341.707108
341.707196
341.70729
341.707389
341.707491
341.707597
341.707705
341.707815
341.707926
341.708037
341.708148
341.708257
341.708363
341.708466
341.708564
341.708657
341.708743
341.708821
341.70889
341.708948
341.708992
341.709022
341.709041
341.70905
341.709041
341.708963
341.706659
341.706672
341.706693
341.706721
341.706757
341.706802
341.706856
341.706918
341.706989
341.707068
341.707154
341.707247
341.707346
341.70745
341.707556
341.707665
341.707773
341.707881
341.707987
341.708092
341.708194
341.708293
341.708388
341.708478
341.708562
341.70864
341.70871
341.708771
341.708823
341.708864
341.708894
341.708907
341.708906
341.708895
341.708876
341.708847
341.708802
341.708729
341.708626
341.708448
341.707573
341.707588
341.707611
341.707642
341.707681
341.707728
341.707783
341.707845
341.707913
341.707988
341.708066
341.708147
341.70823
341.708313
341.708395
341.708475
341.708551
341.708624
341.708691
341.708753
341.708808
341.708857
341.708897
341.708928
341.708951
341.708963
341.708962
341.708948
341.708922
341.708887
341.708842
341.70879
341.70873
341.708657
341.708568
341.708459
341.708332
341.708182
341.708003
341.70772
341.70887
341.708881
341.708895
341.708914
341.708935
341.708961
341.70899
341.709022
341.709056
341.709091
341.709126
341.709159
341.70919
341.709217
341.709241
341.709258
341.709271
341.709276
341.709274
341.709262
341.70924
341.709207
341.709165
341.709117
341.709062
341.708999
341.708929
341.708852
341.708767
341.708672
341.708566
341.708451
341.708322
341.708182
341.708029
341.707862
341.707681
341.707484
341.707261
341.706931
341.709929
341.709933
341.709933
341.709929
341.709923
341.709915
341.709903
341.709889
341.709871
341.709848
341.70982
341.709787
341.709747
341.709701
341.709651
341.709596
341.709536
341.709471
341.7094
341.709323
341.709242
341.709155
341.709062
341.70896
341.70885
341.708732
341.708606
341.708471
341.708329
341.708177
341.708018
341.707852
341.707679
341.7075
341.707313
341.70712
341.70692
341.706711
341.706487
341.706174
341.710145
341.710146
341.710139
341.710125
341.710104
341.710078
341.710046
341.710007
341.709961
341.709909
341.709851
341.709786
341.709714
341.709636
341.709551
341.709458
341.709358
341.709251
341.709136
341.709013
341.708881
341.708742
341.708596
341.708443
341.708282
341.708115
341.707945
341.707772
341.707595
341.707415
341.707233
341.707049
341.706865
341.70668
341.706495
341.70631
341.706125
341.705941
341.705752
341.705498
341.709962
341.70996
341.709948
341.709926
341.709895
341.709853
341.709802
341.709741
341.709669
341.709587
341.709494
341.70939
341.709274
341.709149
341.709015
341.708873
341.708722
341.708564
341.7084
341.708233
341.708064
341.707891
341.707715
341.707537
341.707358
341.707178
341.706999
341.706821
341.706645
341.706472
341.706302
341.706135
341.705973
341.705816
341.705664
341.705518
341.705379
341.705245
341.705114
341.704941
341.709205
341.709197
341.709172
341.70913
341.709075
341.709005
341.708922
341.708825
341.708716
341.708595
341.708464
341.708325
341.708179
341.708027
341.707869
341.707707
341.707541
341.707374
341.707205
341.707036
341.706868
341.7067
341.706533
341.70637
341.706209
341.706052
341.705899
341.705752
341.705611
341.705476
341.705347
341.705226
341.705113
341.705008
341.704911
341.704823
341.704743
341.704673
341.704608
341.704525
341.707589
341.70758
341.707553
341.70751
341.707453
341.707382
341.707298
341.707202
341.707096
341.706981
341.706858
341.706728
341.706594
341.706457
341.706317
341.706177
341.706037
341.705899
341.705762
341.705628
341.705497
341.70537
341.705248
341.705131
341.70502
341.704915
341.704816
341.704725
341.704641
341.704565
341.704497
341.704436
341.704382
341.704337
341.704299
341.704269
341.704245
341.704228
341.704214
341.704191
341.705557
341.705552
341.705533
341.705502
341.70546
341.705408
341.705348
341.70528
341.705205
341.705124
341.705039
341.704951
341.704861
341.704771
341.704682
341.704595
341.70451
341.704429
341.704352
341.704278
341.70421
341.704147
341.704089
341.704038
341.703992
341.703953
341.70392
341.703892
341.703871
341.703855
341.703845
341.703838
341.703837
341.703838
341.703843
341.70385
341.703859
341.703867
341.70387
341.703852
341.703637
341.703639
341.703633
341.70362
341.703603
341.703582
341.703558
341.703531
341.703501
341.703471
341.70344