/*--------------------------------*- C++ -*----------------------------------*\
  =========                 |
  \\      /  F ield         | OpenFOAM: The Open Source CFD Toolbox
   \\    /   O peration     | Website:  https://openfoam.org
    \\  /    A nd           | Version:  10
     \\/     M anipulation  |
\*---------------------------------------------------------------------------*/
FoamFile
{
    format      ascii;
    class       volScalarField;
    location    "0.5";
    object      p_rgh;
}
// * * * * * * * * * * * * * * * * * * * * * * * * * * * * * * * * * * * * * //

dimensions      [1 -1 -2 0 0 0 0];

internalField   nonuniform List<scalar> 
14000
(
2669847.44
2669847.44
2669847.44
2669847.44
2669847.44
2669847.45
2669847.45
2669847.45
2669847.45
2669847.45
2669847.45
2669847.45
2669847.45
2669847.45
2669847.45
2669847.45
2669847.45
2669847.45
2669847.45
2669847.45
2669847.45
2669847.45
2669847.45
2669847.45
2669847.45
2669847.45
2669847.45
2669847.45
2669847.45
2669847.45
2669847.45
2669847.45
2669847.45
2669847.45
2669847.45
2669847.45
2669847.45
2669847.45
2669847.45
2669847.45
2669835.09
2669835.09
2669835.09
2669835.09
2669835.09
2669835.09
2669835.09
2669835.09
2669835.09
2669835.09
2669835.09
2669835.09
2669835.09
2669835.09
2669835.09
2669835.09
2669835.08
2669835.08
2669835.08
2669835.08
2669835.08
2669835.08
2669835.08
2669835.08
2669835.08
2669835.08
2669835.08
2669835.08
2669835.08
2669835.08
2669835.08
2669835.08
2669835.08
2669835.08
2669835.08
2669835.08
2669835.08
2669835.08
2669835.08
2669835.07
2669822.62
2669822.62
2669822.62
2669822.62
2669822.62
2669822.62
2669822.62
2669822.62
2669822.62
2669822.62
2669822.62
2669822.62
2669822.62
2669822.63
2669822.63
2669822.63
2669822.63
2669822.63
2669822.63
2669822.63
2669822.63
2669822.63
2669822.63
2669822.63
2669822.63
2669822.63
2669822.63
2669822.63
2669822.63
2669822.63
2669822.63
2669822.63
2669822.63
2669822.63
2669822.63
2669822.63
2669822.63
2669822.63
2669822.63
2669822.63
2669810
2669810
2669810
2669810
2669810
2669810
2669810
2669810
2669810
2669810
2669810
2669810
2669810
2669810
2669810
2669810
2669810
2669810
2669810
2669810
2669810
2669810
2669810
2669810
2669810
2669810
2669810
2669810
2669810
2669810
2669809.99
2669809.99
2669809.99
2669809.99
2669809.99
2669809.99
2669809.99
2669810
2669810
2669810
2669797.24
2669797.24
2669797.24
2669797.24
2669797.24
2669797.24
2669797.24
2669797.24
2669797.24
2669797.24
2669797.24
2669797.24
2669797.24
2669797.24
2669797.24
2669797.24
2669797.24
2669797.24
2669797.24
2669797.24
2669797.24
2669797.24
2669797.24
2669797.24
2669797.24
2669797.24
2669797.24
2669797.24
2669797.24
2669797.24
2669797.24
2669797.24
2669797.25
2669797.25
2669797.25
2669797.25
2669797.25
2669797.25
2669797.26
2669797.26
2669784.42
2669784.42
2669784.42
2669784.42
2669784.42
2669784.42
2669784.42
2669784.42
2669784.42
2669784.42
2669784.42
2669784.42
2669784.42
2669784.42
2669784.42
2669784.42
2669784.42
2669784.43
2669784.43
2669784.43
2669784.43
2669784.43
2669784.43
2669784.43
2669784.43
2669784.43
2669784.43
2669784.43
2669784.43
2669784.43
2669784.43
2669784.44
2669784.44
2669784.44
2669784.44
2669784.45
2669784.45
2669784.45
2669784.46
2669784.46
2669771.47
2669771.47
2669771.47
2669771.47
2669771.47
2669771.47
2669771.47
2669771.47
2669771.47
2669771.47
2669771.47
2669771.47
2669771.48
2669771.48
2669771.48
2669771.48
2669771.48
2669771.48
2669771.48
2669771.48
2669771.48
2669771.48
2669771.48
2669771.48
2669771.49
2669771.49
2669771.49
2669771.49
2669771.49
2669771.49
2669771.5
2669771.5
2669771.5
2669771.5
2669771.5
2669771.51
2669771.51
2669771.51
2669771.51
2669771.52
2669758.4
2669758.4
2669758.4
2669758.4
2669758.4
2669758.4
2669758.4
2669758.4
2669758.4
2669758.4
2669758.4
2669758.4
2669758.4
2669758.4
2669758.4
2669758.4
2669758.4
2669758.4
2669758.4
2669758.41
2669758.41
2669758.41
2669758.41
2669758.41
2669758.41
2669758.41
2669758.41
2669758.41
2669758.42
2669758.42
2669758.42
2669758.42
2669758.42
2669758.42
2669758.42
2669758.42
2669758.42
2669758.42
2669758.42
2669758.42
2669745.18
2669745.18
2669745.18
2669745.18
2669745.18
2669745.18
2669745.18
2669745.18
2669745.18
2669745.18
2669745.18
2669745.18
2669745.18
2669745.18
2669745.18
2669745.18
2669745.18
2669745.18
2669745.18
2669745.18
2669745.18
2669745.18
2669745.18
2669745.18
2669745.18
2669745.18
2669745.18
2669745.17
2669745.17
2669745.17
2669745.17
2669745.17
2669745.17
2669745.17
2669745.17
2669745.17
2669745.17
2669745.16
2669745.16
2669745.15
2669731.81
2669731.81
2669731.81
2669731.81
2669731.81
2669731.81
2669731.81
2669731.81
2669731.81
2669731.81
2669731.81
2669731.81
2669731.81
2669731.81
2669731.81
2669731.81
2669731.81
2669731.81
2669731.81
2669731.81
2669731.81
2669731.81
2669731.81
2669731.81
2669731.81
2669731.81
2669731.81
2669731.81
2669731.81
2669731.8
2669731.8
2669731.8
2669731.8
2669731.8
2669731.79
2669731.79
2669731.78
2669731.78
2669731.77
2669731.76
2669718.32
2669718.32
2669718.32
2669718.32
2669718.32
2669718.32
2669718.31
2669718.31
2669718.31
2669718.31
2669718.31
2669718.31
2669718.31
2669718.31
2669718.31
2669718.31
2669718.31
2669718.31
2669718.31
2669718.31
2669718.31
2669718.31
2669718.3
2669718.3
2669718.3
2669718.3
2669718.3
2669718.29
2669718.29
2669718.29
2669718.28
2669718.28
2669718.27
2669718.27
2669718.26
2669718.25
2669718.25
2669718.24
2669718.23
2669718.22
2669704.64
2669704.64
2669704.64
2669704.64
2669704.64
2669704.64
2669704.64
2669704.64
2669704.64
2669704.64
2669704.64
2669704.63
2669704.63
2669704.63
2669704.63
2669704.63
2669704.63
2669704.63
2669704.62
2669704.62
2669704.62
2669704.62
2669704.61
2669704.61
2669704.61
2669704.6
2669704.6
2669704.59
2669704.59
2669704.58
2669704.58
2669704.57
2669704.57
2669704.56
2669704.56
2669704.55
2669704.55
2669704.54
2669704.53
2669704.53
2669690.81
2669690.81
2669690.81
2669690.81
2669690.81
2669690.81
2669690.81
2669690.81
2669690.81
2669690.8
2669690.8
2669690.8
2669690.8
2669690.8
2669690.8
2669690.79
2669690.79
2669690.79
2669690.79
2669690.78
2669690.78
2669690.78
2669690.77
2669690.77
2669690.77
2669690.76
2669690.76
2669690.75
2669690.75
2669690.75
2669690.74
2669690.74
2669690.73
2669690.73
2669690.73
2669690.73
2669690.73
2669690.72
2669690.72
2669690.72
2669676.83
2669676.83
2669676.83
2669676.83
2669676.83
2669676.83
2669676.83
2669676.83
2669676.83
2669676.83
2669676.83
2669676.82
2669676.82
2669676.82
2669676.82
2669676.82
2669676.82
2669676.81
2669676.81
2669676.81
2669676.81
2669676.8
2669676.8
2669676.8
2669676.8
2669676.8
2669676.79
2669676.79
2669676.79
2669676.79
2669676.79
2669676.79
2669676.79
2669676.79
2669676.79
2669676.79
2669676.79
2669676.79
2669676.8
2669676.8
2669662.74
2669662.74
2669662.74
2669662.74
2669662.74
2669662.74
2669662.74
2669662.74
2669662.74
2669662.74
2669662.74
2669662.74
2669662.73
2669662.73
2669662.73
2669662.73
2669662.73
2669662.73
2669662.73
2669662.73
2669662.73
2669662.73
2669662.73
2669662.73
2669662.73
2669662.74
2669662.74
2669662.74
2669662.74
2669662.74
2669662.74
2669662.74
2669662.74
2669662.75
2669662.75
2669662.75
2669662.76
2669662.76
2669662.77
2669662.78
2669648.54
2669648.54
2669648.54
2669648.54
2669648.54
2669648.54
2669648.54
2669648.54
2669648.54
2669648.54
2669648.54
2669648.54
2669648.54
2669648.54
2669648.54
2669648.54
2669648.54
2669648.54
2669648.54
2669648.54
2669648.54
2669648.54
2669648.54
2669648.54
2669648.55
2669648.55
2669648.55
2669648.55
2669648.55
2669648.56
2669648.56
2669648.57
2669648.57
2669648.58
2669648.58
2669648.59
2669648.6
2669648.61
2669648.62
2669648.63
2669634.22
2669634.22
2669634.22
2669634.22
2669634.22
2669634.22
2669634.22
2669634.22
2669634.22
2669634.22
2669634.22
2669634.22
2669634.22
2669634.22
2669634.22
2669634.22
2669634.22
2669634.23
2669634.23
2669634.23
2669634.23
2669634.24
2669634.24
2669634.24
2669634.25
2669634.25
2669634.26
2669634.26
2669634.27
2669634.27
2669634.28
2669634.28
2669634.29
2669634.3
2669634.3
2669634.31
2669634.32
2669634.33
2669634.33
2669634.34
2669619.8
2669619.8
2669619.8
2669619.8
2669619.8
2669619.8
2669619.8
2669619.8
2669619.8
2669619.81
2669619.81
2669619.81
2669619.81
2669619.81
2669619.82
2669619.82
2669619.82
2669619.83
2669619.83
2669619.83
2669619.84
2669619.84
2669619.85
2669619.85
2669619.86
2669619.86
2669619.87
2669619.87
2669619.88
2669619.88
2669619.89
2669619.9
2669619.9
2669619.91
2669619.91
2669619.92
2669619.92
2669619.92
2669619.92
2669619.93
2669605.28
2669605.28
2669605.28
2669605.28
2669605.28
2669605.29
2669605.29
2669605.29
2669605.29
2669605.29
2669605.29
2669605.3
2669605.3
2669605.3
2669605.31
2669605.31
2669605.31
2669605.32
2669605.32
2669605.32
2669605.33
2669605.33
2669605.34
2669605.34
2669605.35
2669605.35
2669605.35
2669605.36
2669605.36
2669605.36
2669605.37
2669605.37
2669605.37
2669605.37
2669605.37
2669605.37
2669605.37
2669605.37
2669605.37
2669605.36
2669590.65
2669590.65
2669590.65
2669590.65
2669590.65
2669590.66
2669590.66
2669590.66
2669590.66
2669590.66
2669590.66
2669590.67
2669590.67
2669590.67
2669590.67
2669590.68
2669590.68
2669590.68
2669590.68
2669590.69
2669590.69
2669590.69
2669590.69
2669590.69
2669590.69
2669590.7
2669590.7
2669590.7
2669590.69
2669590.69
2669590.69
2669590.69
2669590.69
2669590.69
2669590.68
2669590.68
2669590.68
2669590.67
2669590.66
2669590.65
2669575.88
2669575.88
2669575.88
2669575.88
2669575.88
2669575.88
2669575.88
2669575.88
2669575.88
2669575.88
2669575.88
2669575.88
2669575.88
2669575.88
2669575.88
2669575.88
2669575.88
2669575.88
2669575.88
2669575.88
2669575.88
2669575.88
2669575.88
2669575.88
2669575.88
2669575.87
2669575.87
2669575.87
2669575.87
2669575.86
2669575.86
2669575.86
2669575.85
2669575.85
2669575.84
2669575.83
2669575.83
2669575.82
2669575.81
2669575.79
2669560.94
2669560.94
2669560.94
2669560.94
2669560.94
2669560.94
2669560.94
2669560.94
2669560.94
2669560.94
2669560.94
2669560.94
2669560.94
2669560.94
2669560.93
2669560.93
2669560.93
2669560.93
2669560.93
2669560.93
2669560.93
2669560.92
2669560.92
2669560.92
2669560.91
2669560.91
2669560.91
2669560.9
2669560.9
2669560.89
2669560.88
2669560.88
2669560.87
2669560.86
2669560.86
2669560.85
2669560.84
2669560.83
2669560.82
2669560.81
2669545.86
2669545.86
2669545.86
2669545.86
2669545.86
2669545.86
2669545.85
2669545.85
2669545.85
2669545.85
2669545.85
2669545.85
2669545.85
2669545.85
2669545.84
2669545.84
2669545.84
2669545.84
2669545.83
2669545.83
2669545.82
2669545.82
2669545.81
2669545.81
2669545.8
2669545.8
2669545.79
2669545.78
2669545.78
2669545.77
2669545.76
2669545.76
2669545.75
2669545.74
2669545.73
2669545.73
2669545.72
2669545.72
2669545.71
2669545.71
2669530.61
2669530.61
2669530.61
2669530.61
2669530.61
2669530.6
2669530.6
2669530.6
2669530.6
2669530.6
2669530.59
2669530.59
2669530.59
2669530.58
2669530.58
2669530.58
2669530.57
2669530.57
2669530.56
2669530.56
2669530.55
2669530.55
2669530.54
2669530.53
2669530.53
2669530.52
2669530.52
2669530.51
2669530.5
2669530.5
2669530.49
2669530.49
2669530.48
2669530.48
2669530.48
2669530.47
2669530.47
2669530.47
2669530.47
2669530.47
2669515.2
2669515.2
2669515.2
2669515.19
2669515.19
2669515.19
2669515.19
2669515.19
2669515.18
2669515.18
2669515.18
2669515.17
2669515.17
2669515.17
2669515.16
2669515.16
2669515.15
2669515.15
2669515.15
2669515.14
2669515.14
2669515.13
2669515.13
2669515.12
2669515.12
2669515.12
2669515.11
2669515.11
2669515.11
2669515.1
2669515.1
2669515.1
2669515.1
2669515.1
2669515.1
2669515.1
2669515.1
2669515.11
2669515.11
2669515.12
2669499.63
2669499.63
2669499.63
2669499.63
2669499.63
2669499.63
2669499.63
2669499.63
2669499.63
2669499.62
2669499.62
2669499.62
2669499.62
2669499.61
2669499.61
2669499.61
2669499.61
2669499.6
2669499.6
2669499.6
2669499.6
2669499.6
2669499.59
2669499.59
2669499.59
2669499.59
2669499.59
2669499.6
2669499.6
2669499.6
2669499.6
2669499.6
2669499.6
2669499.61
2669499.61
2669499.61
2669499.62
2669499.63
2669499.63
2669499.65
2669483.96
2669483.96
2669483.96
2669483.96
2669483.96
2669483.96
2669483.96
2669483.96
2669483.96
2669483.96
2669483.96
2669483.95
2669483.95
2669483.96
2669483.96
2669483.96
2669483.96
2669483.96
2669483.96
2669483.96
2669483.96
2669483.96
2669483.96
2669483.97
2669483.97
2669483.97
2669483.97
2669483.97
2669483.98
2669483.98
2669483.99
2669483.99
2669484
2669484
2669484.01
2669484.01
2669484.02
2669484.03
2669484.04
2669484.05
2669468.18
2669468.18
2669468.18
2669468.18
2669468.18
2669468.19
2669468.19
2669468.19
2669468.19
2669468.19
2669468.19
2669468.19
2669468.19
2669468.19
2669468.19
2669468.19
2669468.2
2669468.2
2669468.2
2669468.2
2669468.2
2669468.21
2669468.21
2669468.21
2669468.22
2669468.22
2669468.23
2669468.23
2669468.24
2669468.24
2669468.25
2669468.26
2669468.26
2669468.27
2669468.28
2669468.28
2669468.29
2669468.3
2669468.3
2669468.31
2669452.29
2669452.29
2669452.3
2669452.3
2669452.3
2669452.3
2669452.3
2669452.3
2669452.3
2669452.3
2669452.3
2669452.31
2669452.31
2669452.31
2669452.31
2669452.32
2669452.32
2669452.32
2669452.33
2669452.33
2669452.34
2669452.34
2669452.35
2669452.36
2669452.36
2669452.37
2669452.37
2669452.38
2669452.39
2669452.39
2669452.4
2669452.4
2669452.41
2669452.41
2669452.42
2669452.42
2669452.43
2669452.43
2669452.44
2669452.44
2669436.31
2669436.31
2669436.31
2669436.31
2669436.31
2669436.31
2669436.31
2669436.32
2669436.32
2669436.32
2669436.33
2669436.33
2669436.33
2669436.34
2669436.34
2669436.35
2669436.35
2669436.36
2669436.36
2669436.37
2669436.37
2669436.38
2669436.38
2669436.39
2669436.39
2669436.4
2669436.4
2669436.41
2669436.41
2669436.42
2669436.42
2669436.43
2669436.43
2669436.43
2669436.43
2669436.43
2669436.43
2669436.43
2669436.43
2669436.43
2669420.22
2669420.22
2669420.23
2669420.23
2669420.23
2669420.23
2669420.23
2669420.23
2669420.24
2669420.24
2669420.24
2669420.25
2669420.25
2669420.26
2669420.26
2669420.26
2669420.27
2669420.27
2669420.28
2669420.28
2669420.28
2669420.29
2669420.29
2669420.29
2669420.3
2669420.3
2669420.3
2669420.3
2669420.31
2669420.31
2669420.31
2669420.3
2669420.3
2669420.3
2669420.3
2669420.3
2669420.29
2669420.29
2669420.28
2669420.28
2669404.02
2669404.02
2669404.02
2669404.03
2669404.03
2669404.03
2669404.03
2669404.03
2669404.03
2669404.04
2669404.04
2669404.04
2669404.04
2669404.04
2669404.05
2669404.05
2669404.05
2669404.05
2669404.05
2669404.05
2669404.06
2669404.06
2669404.06
2669404.06
2669404.05
2669404.05
2669404.05
2669404.05
2669404.05
2669404.04
2669404.04
2669404.04
2669404.03
2669404.03
2669404.03
2669404.02
2669404.01
2669404.01
2669404
2669403.99
2669387.68
2669387.68
2669387.68
2669387.68
2669387.68
2669387.68
2669387.68
2669387.68
2669387.68
2669387.68
2669387.68
2669387.68
2669387.68
2669387.67
2669387.67
2669387.67
2669387.67
2669387.67
2669387.67
2669387.67
2669387.66
2669387.66
2669387.66
2669387.66
2669387.65
2669387.65
2669387.65
2669387.64
2669387.64
2669387.63
2669387.63
2669387.62
2669387.62
2669387.61
2669387.61
2669387.6
2669387.59
2669387.59
2669387.58
2669387.57
2669371.16
2669371.16
2669371.16
2669371.16
2669371.16
2669371.16
2669371.16
2669371.16
2669371.16
2669371.16
2669371.15
2669371.15
2669371.15
2669371.15
2669371.15
2669371.14
2669371.14
2669371.14
2669371.14
2669371.13
2669371.13
2669371.13
2669371.12
2669371.12
2669371.11
2669371.11
2669371.1
2669371.1
2669371.09
2669371.08
2669371.08
2669371.07
2669371.07
2669371.06
2669371.05
2669371.05
2669371.04
2669371.04
2669371.03
2669371.03
2669354.5
2669354.5
2669354.5
2669354.5
2669354.5
2669354.49
2669354.49
2669354.49
2669354.49
2669354.49
2669354.49
2669354.48
2669354.48
2669354.48
2669354.47
2669354.47
2669354.46
2669354.46
2669354.46
2669354.45
2669354.44
2669354.44
2669354.43
2669354.43
2669354.42
2669354.42
2669354.41
2669354.4
2669354.4
2669354.39
2669354.39
2669354.38
2669354.38
2669354.37
2669354.37
2669354.37
2669354.36
2669354.36
2669354.36
2669354.36
2669337.67
2669337.67
2669337.67
2669337.67
2669337.67
2669337.67
2669337.67
2669337.66
2669337.66
2669337.66
2669337.65
2669337.65
2669337.65
2669337.64
2669337.64
2669337.63
2669337.63
2669337.62
2669337.62
2669337.61
2669337.61
2669337.6
2669337.6
2669337.59
2669337.59
2669337.58
2669337.58
2669337.57
2669337.57
2669337.57
2669337.56
2669337.56
2669337.56
2669337.56
2669337.56
2669337.56
2669337.56
2669337.56
2669337.56
2669337.57
2669320.69
2669320.69
2669320.69
2669320.69
2669320.69
2669320.68
2669320.68
2669320.68
2669320.68
2669320.67
2669320.67
2669320.67
2669320.66
2669320.66
2669320.65
2669320.65
2669320.65
2669320.64
2669320.64
2669320.64
2669320.63
2669320.63
2669320.63
2669320.62
2669320.62
2669320.62
2669320.62
2669320.62
2669320.62
2669320.62
2669320.62
2669320.62
2669320.62
2669320.62
2669320.63
2669320.63
2669320.63
2669320.64
2669320.64
2669320.65
2669303.56
2669303.56
2669303.56
2669303.56
2669303.56
2669303.56
2669303.56
2669303.56
2669303.56
2669303.55
2669303.55
2669303.55
2669303.55
2669303.55
2669303.55
2669303.54
2669303.54
2669303.54
2669303.54
2669303.54
2669303.54
2669303.54
2669303.54
2669303.54
2669303.55
2669303.55
2669303.55
2669303.55
2669303.55
2669303.56
2669303.56
2669303.56
2669303.57
2669303.57
2669303.57
2669303.58
2669303.58
2669303.59
2669303.6
2669303.61
2669286.33
2669286.33
2669286.33
2669286.33
2669286.33
2669286.33
2669286.33
2669286.33
2669286.33
2669286.33
2669286.33
2669286.33
2669286.34
2669286.34
2669286.34
2669286.34
2669286.34
2669286.34
2669286.34
2669286.35
2669286.35
2669286.35
2669286.35
2669286.35
2669286.36
2669286.36
2669286.36
2669286.37
2669286.37
2669286.38
2669286.38
2669286.39
2669286.39
2669286.4
2669286.4
2669286.41
2669286.41
2669286.42
2669286.43
2669286.43
2669269
2669269
2669269
2669269
2669269
2669269
2669269
2669269
2669269
2669269
2669269
2669269.01
2669269.01
2669269.01
2669269.01
2669269.01
2669269.02
2669269.02
2669269.02
2669269.03
2669269.03
2669269.03
2669269.04
2669269.04
2669269.05
2669269.05
2669269.06
2669269.06
2669269.07
2669269.07
2669269.08
2669269.08
2669269.09
2669269.09
2669269.1
2669269.1
2669269.11
2669269.11
2669269.12
2669269.12
2669251.55
2669251.55
2669251.55
2669251.55
2669251.55
2669251.55
2669251.55
2669251.55
2669251.56
2669251.56
2669251.56
2669251.56
2669251.57
2669251.57
2669251.58
2669251.58
2669251.59
2669251.59
2669251.59
2669251.6
2669251.6
2669251.61
2669251.62
2669251.62
2669251.63
2669251.63
2669251.64
2669251.64
2669251.65
2669251.65
2669251.65
2669251.66
2669251.66
2669251.66
2669251.67
2669251.67
2669251.67
2669251.67
2669251.67
2669251.67
2669234
2669234
2669234
2669234
2669234
2669234.01
2669234.01
2669234.01
2669234.01
2669234.02
2669234.02
2669234.03
2669234.03
2669234.03
2669234.04
2669234.04
2669234.05
2669234.05
2669234.06
2669234.06
2669234.07
2669234.07
2669234.08
2669234.08
2669234.08
2669234.09
2669234.09
2669234.09
2669234.1
2669234.1
2669234.1
2669234.1
2669234.1
2669234.1
2669234.1
2669234.1
2669234.1
2669234.1
2669234.1
2669234.09
2669216.35
2669216.35
2669216.35
2669216.35
2669216.36
2669216.36
2669216.36
2669216.36
2669216.36
2669216.37
2669216.37
2669216.37
2669216.38
2669216.38
2669216.38
2669216.39
2669216.39
2669216.39
2669216.4
2669216.4
2669216.4
2669216.4
2669216.41
2669216.41
2669216.41
2669216.41
2669216.41
2669216.41
2669216.41
2669216.41
2669216.41
2669216.41
2669216.4
2669216.4
2669216.4
2669216.4
2669216.39
2669216.39
2669216.38
2669216.38
2669198.58
2669198.58
2669198.58
2669198.58
2669198.58
2669198.58
2669198.58
2669198.58
2669198.59
2669198.59
2669198.59
2669198.59
2669198.59
2669198.59
2669198.59
2669198.59
2669198.6
2669198.6
2669198.6
2669198.6
2669198.59
2669198.59
2669198.59
2669198.59
2669198.59
2669198.59
2669198.58
2669198.58
2669198.58
2669198.58
2669198.57
2669198.57
2669198.57
2669198.56
2669198.56
2669198.55
2669198.55
2669198.54
2669198.54
2669198.53
2669180.65
2669180.65
2669180.65
2669180.65
2669180.65
2669180.65
2669180.65
2669180.65
2669180.65
2669180.65
2669180.65
2669180.65
2669180.65
2669180.65
2669180.64
2669180.64
2669180.64
2669180.64
2669180.64
2669180.63
2669180.63
2669180.63
2669180.63
2669180.62
2669180.62
2669180.62
2669180.61
2669180.61
2669180.61
2669180.6
2669180.6
2669180.59
2669180.59
2669180.58
2669180.58
2669180.57
2669180.57
2669180.56
2669180.56
2669180.56
2669162.57
2669162.57
2669162.57
2669162.57
2669162.57
2669162.57
2669162.56
2669162.56
2669162.56
2669162.56
2669162.56
2669162.56
2669162.56
2669162.55
2669162.55
2669162.55
2669162.55
2669162.54
2669162.54
2669162.54
2669162.53
2669162.53
2669162.52
2669162.52
2669162.51
2669162.51
2669162.51
2669162.5
2669162.5
2669162.49
2669162.49
2669162.48
2669162.48
2669162.47
2669162.47
2669162.47
2669162.46
2669162.46
2669162.46
2669162.46
2669144.34
2669144.34
2669144.34
2669144.34
2669144.34
2669144.33
2669144.33
2669144.33
2669144.33
2669144.33
2669144.32
2669144.32
2669144.32
2669144.31
2669144.31
2669144.31
2669144.3
2669144.3
2669144.29
2669144.29
2669144.28
2669144.28
2669144.27
2669144.27
2669144.27
2669144.26
2669144.26
2669144.25
2669144.25
2669144.25
2669144.24
2669144.24
2669144.24
2669144.23
2669144.23
2669144.23
2669144.23
2669144.23
2669144.23
2669144.23
2669125.95
2669125.95
2669125.95
2669125.95
2669125.95
2669125.95
2669125.94
2669125.94
2669125.94
2669125.93
2669125.93
2669125.93
2669125.92
2669125.92
2669125.92
2669125.91
2669125.91
2669125.9
2669125.9
2669125.9
2669125.89
2669125.89
2669125.89
2669125.88
2669125.88
2669125.88
2669125.87
2669125.87
2669125.87
2669125.87
2669125.87
2669125.87
2669125.87
2669125.87
2669125.87
2669125.87
2669125.87
2669125.88
2669125.88
2669125.88
2669107.41
2669107.41
2669107.41
2669107.41
2669107.41
2669107.41
2669107.4
2669107.4
2669107.4
2669107.4
2669107.4
2669107.39
2669107.39
2669107.39
2669107.39
2669107.38
2669107.38
2669107.38
2669107.38
2669107.37
2669107.37
2669107.37
2669107.37
2669107.37
2669107.37
2669107.37
2669107.37
2669107.37
2669107.37
2669107.37
2669107.37
2669107.38
2669107.38
2669107.38
2669107.38
2669107.39
2669107.39
2669107.4
2669107.4
2669107.41
2669088.74
2669088.74
2669088.74
2669088.74
2669088.74
2669088.74
2669088.74
2669088.74
2669088.74
2669088.74
2669088.73
2669088.73
2669088.73
2669088.73
2669088.73
2669088.73
2669088.73
2669088.73
2669088.74
2669088.74
2669088.74
2669088.74
2669088.74
2669088.74
2669088.75
2669088.75
2669088.75
2669088.75
2669088.75
2669088.76
2669088.76
2669088.76
2669088.77
2669088.77
2669088.78
2669088.78
2669088.79
2669088.79
2669088.8
2669088.81
2669069.97
2669069.97
2669069.97
2669069.97
2669069.97
2669069.97
2669069.97
2669069.97
2669069.97
2669069.97
2669069.97
2669069.97
2669069.98
2669069.98
2669069.98
2669069.98
2669069.98
2669069.98
2669069.99
2669069.99
2669069.99
2669069.99
2669070
2669070
2669070
2669070.01
2669070.01
2669070.02
2669070.02
2669070.02
2669070.03
2669070.03
2669070.04
2669070.04
2669070.05
2669070.05
2669070.06
2669070.06
2669070.07
2669070.08
2669051.08
2669051.08
2669051.08
2669051.08
2669051.09
2669051.09
2669051.09
2669051.09
2669051.09
2669051.09
2669051.09
2669051.1
2669051.1
2669051.1
2669051.1
2669051.11
2669051.11
2669051.11
2669051.12
2669051.12
2669051.13
2669051.13
2669051.14
2669051.14
2669051.14
2669051.15
2669051.15
2669051.16
2669051.16
2669051.17
2669051.17
2669051.18
2669051.18
2669051.19
2669051.19
2669051.19
2669051.2
2669051.2
2669051.2
2669051.21
2669032.09
2669032.09
2669032.09
2669032.09
2669032.09
2669032.09
2669032.1
2669032.1
2669032.1
2669032.1
2669032.11
2669032.11
2669032.12
2669032.12
2669032.12
2669032.13
2669032.13
2669032.14
2669032.14
2669032.15
2669032.15
2669032.16
2669032.16
2669032.17
2669032.17
2669032.17
2669032.18
2669032.18
2669032.19
2669032.19
2669032.19
2669032.2
2669032.2
2669032.2
2669032.2
2669032.21
2669032.21
2669032.21
2669032.21
2669032.21
2669013
2669013
2669013
2669013
2669013
2669013
2669013
2669013.01
2669013.01
2669013.01
2669013.02
2669013.02
2669013.03
2669013.03
2669013.03
2669013.04
2669013.04
2669013.05
2669013.05
2669013.05
2669013.06
2669013.06
2669013.07
2669013.07
2669013.07
2669013.07
2669013.08
2669013.08
2669013.08
2669013.08
2669013.08
2669013.08
2669013.09
2669013.09
2669013.09
2669013.08
2669013.08
2669013.08
2669013.08
2669013.08
2668993.8
2668993.8
2668993.8
2668993.8
2668993.8
2668993.8
2668993.8
2668993.8
2668993.81
2668993.81
2668993.81
2668993.81
2668993.82
2668993.82
2668993.82
2668993.83
2668993.83
2668993.83
2668993.83
2668993.83
2668993.84
2668993.84
2668993.84
2668993.84
2668993.84
2668993.84
2668993.84
2668993.84
2668993.84
2668993.84
2668993.84
2668993.84
2668993.84
2668993.83
2668993.83
2668993.83
2668993.83
2668993.82
2668993.82
2668993.82
2668974.47
2668974.47
2668974.47
2668974.47
2668974.47
2668974.47
2668974.47
2668974.47
2668974.47
2668974.47
2668974.47
2668974.47
2668974.48
2668974.48
2668974.48
2668974.48
2668974.48
2668974.48
2668974.48
2668974.48
2668974.47
2668974.47
2668974.47
2668974.47
2668974.47
2668974.47
2668974.46
2668974.46
2668974.46
2668974.46
2668974.45
2668974.45
2668974.45
2668974.45
2668974.44
2668974.44
2668974.44
2668974.43
2668974.43
2668974.43
2668954.99
2668954.99
2668954.99
2668954.99
2668954.99
2668954.99
2668954.98
2668954.98
2668954.98
2668954.98
2668954.98
2668954.98
2668954.98
2668954.98
2668954.98
2668954.97
2668954.97
2668954.97
2668954.97
2668954.97
2668954.96
2668954.96
2668954.96
2668954.96
2668954.95
2668954.95
2668954.95
2668954.94
2668954.94
2668954.94
2668954.93
2668954.93
2668954.93
2668954.92
2668954.92
2668954.92
2668954.91
2668954.91
2668954.91
2668954.91
2668935.35
2668935.35
2668935.35
2668935.35
2668935.35
2668935.35
2668935.35
2668935.35
2668935.35
2668935.34
2668935.34
2668935.34
2668935.34
2668935.34
2668935.33
2668935.33
2668935.33
2668935.33
2668935.32
2668935.32
2668935.32
2668935.31
2668935.31
2668935.31
2668935.3
2668935.3
2668935.3
2668935.29
2668935.29
2668935.29
2668935.28
2668935.28
2668935.28
2668935.27
2668935.27
2668935.27
2668935.27
2668935.27
2668935.27
2668935.27
2668915.58
2668915.58
2668915.58
2668915.57
2668915.57
2668915.57
2668915.57
2668915.57
2668915.57
2668915.56
2668915.56
2668915.56
2668915.56
2668915.55
2668915.55
2668915.55
2668915.54
2668915.54
2668915.53
2668915.53
2668915.53
2668915.52
2668915.52
2668915.52
2668915.51
2668915.51
2668915.51
2668915.51
2668915.5
2668915.5
2668915.5
2668915.5
2668915.5
2668915.5
2668915.5
2668915.5
2668915.5
2668915.5
2668915.5
2668915.51
2668895.65
2668895.65
2668895.65
2668895.64
2668895.64
2668895.64
2668895.64
2668895.64
2668895.64
2668895.63
2668895.63
2668895.63
2668895.62
2668895.62
2668895.62
2668895.62
2668895.61
2668895.61
2668895.61
2668895.6
2668895.6
2668895.6
2668895.6
2668895.6
2668895.6
2668895.59
2668895.59
2668895.59
2668895.59
2668895.59
2668895.59
2668895.6
2668895.6
2668895.6
2668895.6
2668895.6
2668895.61
2668895.61
2668895.62
2668895.62
2668875.57
2668875.57
2668875.57
2668875.57
2668875.57
2668875.57
2668875.57
2668875.57
2668875.56
2668875.56
2668875.56
2668875.56
2668875.56
2668875.56
2668875.56
2668875.55
2668875.55
2668875.55
2668875.55
2668875.55
2668875.55
2668875.55
2668875.55
2668875.55
2668875.55
2668875.56
2668875.56
2668875.56
2668875.56
2668875.56
2668875.57
2668875.57
2668875.57
2668875.58
2668875.58
2668875.59
2668875.59
2668875.6
2668875.61
2668875.62
2668855.37
2668855.37
2668855.37
2668855.37
2668855.37
2668855.37
2668855.37
2668855.37
2668855.37
2668855.37
2668855.37
2668855.37
2668855.37
2668855.38
2668855.38
2668855.38
2668855.38
2668855.38
2668855.38
2668855.39
2668855.39
2668855.39
2668855.39
2668855.4
2668855.4
2668855.4
2668855.41
2668855.41
2668855.41
2668855.42
2668855.42
2668855.43
2668855.43
2668855.44
2668855.44
2668855.45
2668855.46
2668855.46
2668855.47
2668855.48
2668835.07
2668835.07
2668835.07
2668835.07
2668835.07
2668835.07
2668835.08
2668835.08
2668835.08
2668835.08
2668835.08
2668835.08
2668835.09
2668835.09
2668835.09
2668835.09
2668835.1
2668835.1
2668835.1
2668835.11
2668835.11
2668835.11
2668835.12
2668835.12
2668835.13
2668835.13
2668835.14
2668835.14
2668835.15
2668835.15
2668835.16
2668835.17
2668835.17
2668835.18
2668835.18
2668835.19
2668835.2
2668835.2
2668835.21
2668835.22
2668814.66
2668814.66
2668814.66
2668814.66
2668814.66
2668814.66
2668814.67
2668814.67
2668814.67
2668814.67
2668814.67
2668814.68
2668814.68
2668814.68
2668814.69
2668814.69
2668814.7
2668814.7
2668814.71
2668814.71
2668814.72
2668814.72
2668814.73
2668814.74
2668814.74
2668814.75
2668814.75
2668814.76
2668814.77
2668814.77
2668814.78
2668814.78
2668814.79
2668814.79
2668814.8
2668814.8
2668814.81
2668814.81
2668814.82
2668814.83
2668794.14
2668794.14
2668794.14
2668794.14
2668794.14
2668794.15
2668794.15
2668794.15
2668794.16
2668794.16
2668794.16
2668794.17
2668794.17
2668794.18
2668794.18
2668794.19
2668794.2
2668794.2
2668794.21
2668794.21
2668794.22
2668794.22
2668794.23
2668794.24
2668794.24
2668794.25
2668794.25
2668794.26
2668794.26
2668794.27
2668794.27
2668794.28
2668794.28
2668794.28
2668794.29
2668794.29
2668794.29
2668794.3
2668794.3
2668794.3
2668773.53
2668773.53
2668773.53
2668773.53
2668773.53
2668773.53
2668773.54
2668773.54
2668773.54
2668773.55
2668773.55
2668773.56
2668773.56
2668773.57
2668773.57
2668773.58
2668773.58
2668773.59
2668773.59
2668773.6
2668773.6
2668773.61
2668773.61
2668773.62
2668773.62
2668773.62
2668773.63
2668773.63
2668773.63
2668773.64
2668773.64
2668773.64
2668773.64
2668773.65
2668773.65
2668773.65
2668773.65
2668773.65
2668773.65
2668773.65
2668752.81
2668752.81
2668752.81
2668752.81
2668752.81
2668752.81
2668752.81
2668752.82
2668752.82
2668752.82
2668752.83
2668752.83
2668752.83
2668752.84
2668752.84
2668752.84
2668752.85
2668752.85
2668752.85
2668752.86
2668752.86
2668752.86
2668752.86
2668752.87
2668752.87
2668752.87
2668752.87
2668752.87
2668752.87
2668752.88
2668752.88
2668752.88
2668752.88
2668752.88
2668752.88
2668752.88
2668752.88
2668752.88
2668752.88
2668752.88
2668731.96
2668731.96
2668731.96
2668731.96
2668731.96
2668731.97
2668731.97
2668731.97
2668731.97
2668731.97
2668731.97
2668731.97
2668731.98
2668731.98
2668731.98
2668731.98
2668731.98
2668731.98
2668731.98
2668731.98
2668731.98
2668731.98
2668731.98
2668731.98
2668731.98
2668731.98