/*--------------------------------*- C++ -*----------------------------------*\
  =========                 |
  \\      /  F ield         | OpenFOAM: The Open Source CFD Toolbox
   \\    /   O peration     | Website:  https://openfoam.org
    \\  /    A nd           | Version:  10
     \\/     M anipulation  |
\*---------------------------------------------------------------------------*/
FoamFile
{
    format      ascii;
    class       surfaceScalarField;
    location    "0.5";
    object      phi.gas;
}
// * * * * * * * * * * * * * * * * * * * * * * * * * * * * * * * * * * * * * //

dimensions      [0 3 -1 0 0 0 0];

internalField   nonuniform List<scalar> 
27610
(
-3.55594847e-13
1.95256007e-09
-1.09111534e-13
5.72229305e-09
-9.01013573e-13
9.29281211e-09
-1.93517706e-12
1.26702189e-08
-3.17603436e-12
1.58608069e-08
-4.57171441e-12
1.8870715e-08
-6.07206262e-12
2.1705784e-08
-7.67592885e-12
2.43715086e-08
-9.38775657e-12
2.68730628e-08
-1.11151073e-11
2.92153843e-08
-1.2762046e-11
3.14032326e-08
-1.42393059e-11
3.3441216e-08
-1.54305351e-11
3.5333825e-08
-1.63383015e-11
3.70854345e-08
-1.70466691e-11
3.87002948e-08
-1.75692258e-11
4.01825051e-08
-1.78705642e-11
4.15359547e-08
-1.79027895e-11
4.27642919e-08
-1.75589561e-11
4.38708512e-08
-1.67693833e-11
4.48586397e-08
-1.56952906e-11
4.57303335e-08
-1.4503751e-11
4.64883269e-08
-1.32842002e-11
4.71347696e-08
-1.21516481e-11
4.76715191e-08
-1.11784564e-11
4.81000924e-08
-1.03347755e-11
4.84215635e-08
-9.46622541e-12
4.86364693e-08
-8.61947329e-12
4.87446232e-08
-7.77557452e-12
4.87448938e-08
-6.85453657e-12
4.86348481e-08
-5.98138707e-12
4.84102073e-08
-5.0657785e-12
4.80640418e-08
-3.9936612e-12
4.75854107e-08
-2.84144159e-12
4.6957102e-08
-1.68673445e-12
4.61515142e-08
-5.95016159e-13
4.51226572e-08
2.71276577e-13
4.37890767e-08
8.82158221e-13
4.19935718e-08
8.50627747e-13
3.92819162e-08
3.27515445e-08
-5.56220746e-13
1.95249687e-09
2.22337764e-13
5.72205648e-09
7.28332602e-13
9.29240893e-09
1.45282303e-12
1.26696594e-08
2.30817113e-12
1.58600955e-08
3.25768773e-12
1.88698501e-08
4.26688825e-12
2.17047616e-08
5.35075915e-12
2.43703235e-08
6.53902597e-12
2.68717098e-08
7.76779449e-12
2.92138585e-08
8.99090707e-12
3.14015293e-08
1.01639089e-11
3.34393316e-08
1.11526057e-11
3.53317569e-08
1.19311931e-11
3.70831818e-08
1.2577725e-11
3.8697858e-08
1.30987243e-11
4.01798865e-08
1.3452488e-11
4.1533158e-08
1.35873631e-11
4.2761322e-08
1.33967899e-11
4.38677145e-08
1.28185546e-11
4.48553443e-08
1.20176161e-11
4.57268895e-08
1.11655847e-11
4.64847465e-08
1.03431578e-11
4.71310668e-08
9.66648521e-12
4.76677093e-08
9.22343725e-12
4.80961927e-08
8.97070231e-12
4.84175921e-08
8.74349258e-12
4.86324458e-08
8.60011127e-12
4.8740569e-08
8.51165799e-12
4.87408321e-08
8.39370699e-12
4.86308043e-08
8.34640375e-12
4.84062095e-08
8.21625004e-12
4.80601216e-08
7.83028804e-12
4.75816045e-08
7.14111614e-12
4.69534527e-08
6.07853558e-12
4.61480741e-08
4.70963356e-12
4.51194915e-08
2.97050257e-12
4.37862679e-08
6.89252045e-13
4.19912134e-08
-1.55818317e-12
3.92802065e-08
3.27509662e-08
-2.80392612e-13
1.9525471e-09
-3.71494032e-13
5.72222832e-09
-1.25767241e-12
9.29268873e-09
-2.3381941e-12
1.26700331e-08
-3.5899765e-12
1.58605496e-08
-4.94037901e-12
1.88703702e-08
-6.3691234e-12
2.17053319e-08
-7.85242631e-12
2.43709279e-08
-9.34370472e-12
2.68723323e-08
-1.08180732e-11
2.92144843e-08
-1.22861451e-11
3.14021458e-08
-1.37389531e-11
3.34399283e-08
-1.51234748e-11
3.53323259e-08
-1.63932888e-11
3.70837174e-08
-1.75124353e-11
3.86983564e-08
-1.84484045e-11
4.01803456e-08
-1.91972615e-11
4.15335764e-08
-1.97517457e-11
4.27616989e-08
-2.00797649e-11
4.38680492e-08
-2.01061577e-11
4.48556364e-08
-1.98163305e-11
4.57271391e-08
-1.92592861e-11
4.64849551e-08
-1.84321218e-11
4.71312376e-08
-1.73403553e-11
4.76678471e-08
-1.60023561e-11
4.80963033e-08
-1.44116147e-11
4.84176828e-08
-1.25638082e-11
4.86325252e-08
-1.04920549e-11
4.8740646e-08
-8.21453353e-12
4.87409168e-08
-5.78235924e-12
4.86309073e-08
-3.28897792e-12
4.84063422e-08
-8.43071979e-13
4.80602967e-08
1.4430842e-12
4.75818364e-08
3.50868791e-12
4.69537588e-08
5.23062551e-12
4.61484758e-08
6.23331931e-12
4.51200156e-08
6.25833775e-12
4.37869456e-08
5.17275959e-12
4.19920777e-08
2.91944719e-12
3.92813083e-08
3.27524936e-08
-4.5699969e-13
1.95256894e-09
6.89576853e-14
5.72228632e-09
-1.29082693e-13
9.29276771e-09
-3.13448812e-13
1.26701207e-08
-5.37783065e-13
1.58606316e-08
-8.16676443e-13
1.88704331e-08
-1.10297879e-12
2.17053618e-08
-1.35167321e-12
2.43709103e-08
-1.54183353e-12
2.6872253e-08
-1.60523585e-12
2.92143302e-08
-1.51920923e-12
3.14019052e-08
-1.32802365e-12
3.34395915e-08
-1.0079599e-12
3.53318853e-08
-5.32345167e-13
3.70831675e-08
1.03911479e-13
3.86976933e-08
8.83032457e-13
4.01795662e-08
1.79953081e-12
4.15326786e-08
2.85478545e-12
4.27606808e-08
4.02461806e-12
4.38669089e-08
5.2393526e-12
4.48543724e-08
6.48965939e-12
4.5725751e-08
7.80364382e-12
4.64834441e-08
9.14892825e-12
4.71296068e-08
1.04841942e-11
4.7666101e-08
1.17563471e-11
4.80944478e-08
1.29075555e-11
4.84157247e-08
1.38692051e-11
4.86304719e-08
1.45676143e-11
4.87385055e-08
1.49346527e-11
4.87386968e-08
1.49245998e-11
4.86286152e-08
1.4538194e-11
4.84039843e-08
1.38322073e-11
4.80578775e-08
1.28654618e-11
4.75793587e-08
1.16711343e-11
4.69512231e-08
1.0293856e-11
4.61458809e-08
8.79460739e-12
4.51173586e-08
7.46455764e-12
4.37842249e-08
6.85526066e-12
4.19892983e-08
5.28742485e-12
3.92784929e-08
3.27498544e-08
-5.86260878e-13
1.95257973e-09
-1.0963762e-13
5.72231217e-09
-5.92040622e-13
9.29279431e-09
-1.09359022e-12
1.26701318e-08
-1.67602141e-12
1.58606172e-08
-2.32846334e-12
1.8870384e-08
-3.02779019e-12
2.17052689e-08
-3.74983996e-12
2.43707644e-08
-4.47306544e-12
2.6872045e-08
-5.20775402e-12
2.92140521e-08
-5.90470966e-12
3.14015504e-08
-6.47484909e-12
3.34391553e-08
-6.93566945e-12
3.53313645e-08
-7.33666565e-12
3.70825605e-08
-7.69784724e-12
3.86969996e-08
-7.99901339e-12
4.01787862e-08
-8.23658068e-12
4.15318125e-08
-8.42888825e-12
4.27597286e-08
-8.57060065e-12
4.38658703e-08
-8.63797869e-12
4.48532467e-08
-8.61782628e-12
4.57245382e-08
-8.50911386e-12
4.6482145e-08
-8.31032935e-12
4.71282237e-08
-8.00195568e-12
4.76646371e-08
-7.553056e-12
4.80929068e-08
-6.95289077e-12
4.84141105e-08
-6.17630606e-12
4.86287881e-08
-5.20644736e-12
4.87367549e-08
-4.08912108e-12
4.87368806e-08
-2.91671797e-12
4.86267323e-08
-1.71992121e-12
4.84020305e-08
-5.17841878e-13
4.80558451e-08
6.37292785e-13
4.75772356e-08
1.74875087e-12
4.6948993e-08
2.93423905e-12
4.61435248e-08
4.27094184e-12
4.51148588e-08
6.00422933e-12
4.37815741e-08
8.5021847e-12
4.19865208e-08
7.87150659e-12
3.92756935e-08
3.27475697e-08
-5.52552199e-13
1.95263252e-09
-4.21399455e-14
5.72246139e-09
-4.51106613e-13
9.29301841e-09
-8.67309378e-13
1.26704092e-08
-1.33491381e-12
1.58609313e-08
-1.8434031e-12
1.88707213e-08
-2.37292001e-12
2.17056168e-08
-2.90067088e-12
2.43711103e-08
-3.40455728e-12
2.68723767e-08
-3.86391803e-12
2.92143582e-08
-4.27636393e-12
3.1401821e-08
-4.65249594e-12
3.34393821e-08
-4.96923633e-12
3.53315413e-08
-5.17935335e-12
3.70826824e-08
-5.27484281e-12
3.86970628e-08
-5.27415823e-12
4.01787873e-08
-5.17094333e-12
4.15317482e-08
-4.947955e-12
4.27595952e-08
-4.58936864e-12
4.38656636e-08
-4.09184867e-12
4.48529622e-08
-3.47156243e-12
4.57241717e-08
-2.74858517e-12
4.64816938e-08
-1.94502742e-12
4.71276863e-08
-1.09940104e-12
4.76640131e-08
-2.56740609e-13
4.80921967e-08
5.50783837e-13
4.84133153e-08
1.27101807e-12
4.86279089e-08
1.86748438e-12
4.87357922e-08
2.35609835e-12
4.87358336e-08
2.80142167e-12
4.86255977e-08
3.22999771e-12
4.84008015e-08
3.66640379e-12
4.80545103e-08
4.17883245e-12
4.75757782e-08
4.83203878e-12
4.69473913e-08
5.63760835e-12
4.61417546e-08
6.64518423e-12
4.51129004e-08
8.14323733e-12
4.37794273e-08
1.03525787e-11
4.19842318e-08
8.87230438e-12
3.92734249e-08
3.27459981e-08
-5.66669678e-13
1.95268163e-09
-9.52564192e-14
5.7226003e-09
-5.52994734e-13
9.29322483e-09
-1.03877878e-12
1.26706617e-08
-1.59213482e-12
1.58612135e-08
-2.20231621e-12
1.88710203e-08
-2.85138264e-12
2.17059213e-08
-3.51906968e-12
2.43714093e-08
-4.18606894e-12
2.68726596e-08
-4.83429297e-12
2.92146151e-08
-5.44709794e-12
3.14020434e-08
-6.01100733e-12
3.34395632e-08
-6.52815452e-12
3.53316757e-08
-6.99873371e-12
3.70827664e-08
-7.40384532e-12
3.86970937e-08
-7.72447989e-12
4.01787627e-08
-7.95870484e-12
4.15316657e-08
-8.1096834e-12
4.2759452e-08
-8.17864606e-12
4.38654563e-08
-8.16231524e-12
4.48526873e-08
-8.03997505e-12
4.57238262e-08
-7.79805997e-12
4.64812759e-08
-7.44585205e-12
4.71271954e-08
-7.00461379e-12
4.76634498e-08
-6.49589452e-12
4.80915624e-08
-5.92711379e-12
4.84126119e-08
-5.29908645e-12
4.86271381e-08
-4.60859145e-12
4.87349547e-08
-3.86055613e-12
4.87349282e-08
-3.03867461e-12
4.86246201e-08
-2.08767396e-12
4.83997429e-08
-9.54103398e-13
4.8053356e-08
4.4523932e-13
4.75745073e-08
2.20177658e-12
4.69459768e-08
4.35896773e-12
4.61401669e-08
6.83239144e-12
4.51111161e-08
9.27602591e-12
4.37774466e-08
1.14556723e-11
4.19821103e-08
9.09822595e-12
3.92713479e-08
3.27446863e-08
-5.40840921e-13
1.95274058e-09
-1.00618786e-13
5.72276789e-09
-5.47792747e-13
9.29347699e-09
-1.02332309e-12
1.2670976e-08
-1.5618495e-12
1.58615725e-08
-2.15205267e-12
1.88714108e-08
-2.77633153e-12
2.17063317e-08
-3.41487656e-12
2.43718286e-08
-4.04820594e-12
2.68730769e-08
-4.6575216e-12
2.92150205e-08
-5.22554028e-12
3.14024282e-08
-5.73760381e-12
3.34399203e-08
-6.16861572e-12
3.53319998e-08
-6.5015934e-12
3.70830534e-08
-6.75351081e-12
3.86973405e-08
-6.92207799e-12
4.01789665e-08
-6.95193684e-12
4.15318235e-08
-6.81819308e-12
4.27595604e-08
-6.54440548e-12
4.3865511e-08
-6.12083225e-12
4.48526837e-08
-5.49528296e-12
4.572376e-08
-4.62795371e-12
4.64811438e-08
-3.50214615e-12
4.71269952e-08
-2.10075587e-12
4.76631803e-08
-3.9454385e-13
4.80912227e-08
1.55524513e-12
4.84122015e-08
3.57346455e-12
4.86266562e-08
5.46227135e-12
4.87343995e-08
7.13143175e-12
4.87342964e-08
8.51896546e-12
4.86239054e-08
9.54532174e-12
4.83989351e-08
1.01697603e-11
4.80524391e-08
1.03821096e-11
4.75734585e-08
1.02369824e-11
4.69447676e-08
1.00026027e-11
4.61387661e-08
9.94238029e-12
4.51094988e-08
1.05886094e-11
4.37756118e-08
1.19663235e-11
4.19801114e-08
9.4656262e-12
3.92693587e-08
3.27434019e-08
-5.32070378e-13
1.95278137e-09
1.93150635e-14
5.72287845e-09
-3.03644982e-13
9.29363409e-09
-5.95498822e-13
1.26711585e-08
-9.02801307e-13
1.58617644e-08
-1.21828652e-12
1.88715996e-08
-1.52850376e-12
2.17065065e-08
-1.81780404e-12
2.43719787e-08
-2.07088875e-12
2.68731919e-08
-2.27362655e-12
2.92150908e-08
-2.4151653e-12
3.14024452e-08
-2.48918343e-12
3.34398771e-08
-2.49773715e-12
3.5331891e-08
-2.44940352e-12
3.70828751e-08
-2.34187053e-12
3.86970897e-08
-2.19666465e-12
4.01786407e-08
-2.06689934e-12
4.15314203e-08
-1.95858797e-12
4.27590767e-08
-1.85756617e-12
4.38649436e-08
-1.77750416e-12
4.48520292e-08
-1.75349308e-12
4.57230157e-08
-1.84750352e-12
4.64803084e-08
-2.1001131e-12
4.71260692e-08
-2.51094238e-12
4.76621659e-08
-3.01030136e-12
4.80901233e-08
-3.55357317e-12
4.84110213e-08
-4.01319287e-12
4.86253993e-08
-4.22956647e-12
4.87330694e-08
-4.14022015e-12
4.8732894e-08
-3.74878147e-12
4.86224281e-08
-3.15994374e-12
4.83973749e-08
-2.317019e-12
4.8050781e-08
-1.0484854e-12
4.75716797e-08
7.63256185e-13
4.69428368e-08
3.0394862e-12
4.61366477e-08
5.49693636e-12
4.51071615e-08
8.06890733e-12
4.37730473e-08
1.05585406e-11
4.19773659e-08
8.53892833e-12
3.92665975e-08
3.27412979e-08
-5.80330268e-13
1.952831e-09
-1.77891114e-13
5.72301959e-09
-7.04539043e-13
9.29384405e-09
-1.28493998e-12
1.26714157e-08
-1.95237744e-12
1.58620524e-08
-2.69358802e-12
1.8871906e-08
-3.48983562e-12
2.17068209e-08
-4.32018744e-12
2.4372291e-08
-5.16230647e-12
2.68734926e-08
-5.99697901e-12
2.92153707e-08
-6.82059241e-12
3.14026967e-08
-7.63322673e-12
3.34400941e-08
-8.41096348e-12
3.53320692e-08
-9.11919899e-12
3.70830116e-08
-9.7305452e-12
3.86971827e-08
-1.0264368e-11
4.01786888e-08
-1.07193786e-11
4.15314218e-08
-1.10808919e-11
4.27590295e-08
-1.13401104e-11
4.38648448e-08
-1.1434894e-11
4.48518755e-08
-1.13112835e-11
4.57228043e-08
-1.09484495e-11
4.64800373e-08
-1.03190152e-11
4.71257378e-08
-9.38423501e-12
4.7661774e-08
-8.19563401e-12
4.80896718e-08
-6.78182062e-12
4.84105111e-08
-5.25457127e-12
4.86248313e-08
-3.67878924e-12
4.87324438e-08
-2.03302441e-12
4.87322092e-08
-3.39851935e-13
4.86216794e-08
1.37632581e-12
4.83965524e-08
3.00321022e-12
4.80498685e-08
4.4222333e-12
4.75706525e-08
5.74015363e-12
4.69416625e-08
6.98732763e-12
4.6135289e-08
8.23400435e-12
4.5105585e-08
9.66828127e-12
4.37712423e-08
1.11730635e-11
4.19753778e-08
8.58287846e-12
3.92645895e-08
3.2739878e-08
-4.83276689e-13
1.95289749e-09
-4.9227383e-14
5.72320975e-09
-4.32964217e-13
9.2941327e-09
-8.21661424e-13
1.26717788e-08
-1.24513511e-12
1.58624708e-08
-1.69158064e-12
1.88723651e-08
-2.14417634e-12
2.17073077e-08
-2.58388025e-12
2.43727931e-08
-2.99209483e-12
2.68739977e-08
-3.34690965e-12
2.92158673e-08
-3.61215707e-12
3.14031744e-08
-3.755517e-12
3.34405442e-08
-3.78708617e-12
3.53324849e-08
-3.71670839e-12
3.70833876e-08
-3.53783322e-12
3.86975146e-08
-3.20241585e-12
4.01789728e-08
-2.69648782e-12
4.1531654e-08
-2.04790458e-12
4.27592054e-08
-1.25088292e-12
4.38649593e-08
-3.56005285e-13
4.48519232e-08
5.49799124e-13
4.57227804e-08
1.42446223e-12
4.64799388e-08
2.2407957e-12
4.71255633e-08
3.01185515e-12
4.76615242e-08
3.6936931e-12
4.80893482e-08
4.27798926e-12
4.84101163e-08
4.83977787e-12
4.86243681e-08
5.38388257e-12
4.87319142e-08
5.83139782e-12
4.87316134e-08
6.17929937e-12
4.8621014e-08
6.53966012e-12
4.83958089e-08
6.98700629e-12
4.80490304e-08
7.54117245e-12
4.75696941e-08
8.10723284e-12
4.69405483e-08
8.72391872e-12
4.61339761e-08
9.43332616e-12
4.51040318e-08
1.03933013e-11
4.37694271e-08
1.15834375e-11
4.1973332e-08
8.95964247e-12
3.92624478e-08
3.27381871e-08
-5.3370444e-13
1.95294193e-09
-7.38435799e-14
5.72333301e-09
-4.8531024e-13
9.29431127e-09
-9.00041289e-13
1.26719907e-08
-1.35760857e-12
1.58627001e-08
-1.84922593e-12
1.88726e-08
-2.35951888e-12
2.1707538e-08
-2.87063746e-12
2.4373009e-08
-3.36439564e-12
2.68741896e-08
-3.82370594e-12
2.92160263e-08
-4.23384394e-12
3.14032928e-08
-4.5832269e-12
3.34406161e-08
-4.85052537e-12
3.53325058e-08
-5.03283857e-12
3.70833547e-08
-5.14643886e-12
3.8697426e-08
-5.2053554e-12
4.01788269e-08
-5.21452549e-12
4.15314492e-08
-5.15424878e-12
4.27589393e-08
-4.99662642e-12
4.38646291e-08
-4.69824847e-12
4.48515255e-08
-4.20683566e-12
4.57223121e-08
-3.49034547e-12
4.64793981e-08
-2.56382675e-12
4.71249496e-08
-1.5355943e-12
4.76608379e-08
-4.64709618e-13
4.80885907e-08
6.12182546e-13
4.84092893e-08
1.66465973e-12
4.86234733e-08
2.66383105e-12
4.87309526e-08
3.58123101e-12
4.87305839e-08
4.39767692e-12
4.8619912e-08
5.10771279e-12
4.83946239e-08
5.71808864e-12
4.80477445e-08
6.24824631e-12
4.75682793e-08
6.73259644e-12
4.69389665e-08
7.23497537e-12
4.6132181e-08
7.82339702e-12
4.51019778e-08
8.78886493e-12
4.37670871e-08
1.04975249e-11
4.19707322e-08
8.75169365e-12
3.92597176e-08
3.27358772e-08
-5.44505389e-13
1.95298907e-09
-4.66918266e-14
5.72346281e-09
-4.33399736e-13
9.29449907e-09
-8.0485148e-13
1.2672214e-08
-1.20698081e-12
1.58629429e-08
-1.63161891e-12
1.88728502e-08
-2.06312461e-12
2.17077853e-08
-2.48331068e-12
2.43732434e-08
-2.87361008e-12
2.68744012e-08
-3.21630592e-12
2.92162058e-08
-3.49618027e-12
3.1403432e-08
-3.70178481e-12
3.34407084e-08
-3.82597407e-12
3.53325464e-08
-3.86497781e-12
3.708334e-08
-3.8192439e-12
3.86973533e-08
-3.69447902e-12
4.0178694e-08
-3.49399816e-12
4.15312531e-08
-3.21151849e-12
4.27586768e-08
-2.84122306e-12
4.38642956e-08
-2.36758456e-12
4.48511163e-08
-1.77224984e-12
4.5721823e-08
-1.07757056e-12
4.64788259e-08
-3.06604026e-13
4.71242929e-08
5.31297795e-13
4.76600965e-08
1.37387686e-12
4.80877656e-08
2.15702955e-12
4.84083822e-08
2.85794031e-12
4.86224864e-08
3.39285118e-12
4.87298873e-08
3.69736079e-12
4.87294402e-08
3.7144e-12
4.86186869e-08
3.44122303e-12
4.83933091e-08
3.05633142e-12
4.80463241e-08
2.92328501e-12
4.75667278e-08
3.27071274e-12
4.69372472e-08
4.27739116e-12
4.61302483e-08
5.93162193e-12
4.50997851e-08
8.23874206e-12
4.37646052e-08
1.100595e-11
4.19679831e-08
9.50106669e-12
3.92568257e-08
3.2733399e-08
-5.79529181e-13
1.9530257e-09
-5.71979005e-14
5.72356083e-09
-4.56395438e-13
9.29463443e-09
-8.41582474e-13
1.26723653e-08
-1.26034184e-12
1.58630948e-08
-1.70477779e-12
1.88729916e-08
-2.16111126e-12
2.17079067e-08
-2.61377969e-12
2.43733353e-08
-3.04624589e-12
2.68744544e-08
-3.44265901e-12
2.92162115e-08
-3.79091485e-12
3.14033828e-08
-4.08392577e-12
3.34405981e-08
-4.32107132e-12
3.53323707e-08
-4.51546635e-12
3.7083096e-08
-4.68872263e-12
3.86970391e-08
-4.85295278e-12
4.01783079e-08
-5.02228365e-12
4.15307936e-08
-5.22293842e-12
4.27581415e-08
-5.45068249e-12
4.38636819e-08
-5.69819895e-12
4.48504212e-08
-6.03994395e-12
4.57210444e-08
-6.46403211e-12
4.64779632e-08
-6.83369085e-12
4.71233473e-08
-7.03981809e-12
4.76590706e-08
-7.00728471e-12
4.80866625e-08
-6.68425641e-12
4.84072056e-08
-6.07538556e-12
4.86212397e-08
-5.11683913e-12
4.8728573e-08
-3.79770671e-12
4.87280585e-08
-2.1796462e-12
4.86172341e-08
-4.76871113e-13
4.83917759e-08
1.12276825e-12
4.80446932e-08
2.41202003e-12
4.75649724e-08
3.54379051e-12
4.69353305e-08
4.58232909e-12
4.61281255e-08
5.65855605e-12
4.50974114e-08
7.26243904e-12
4.37619544e-08
9.8456875e-12
4.19650823e-08
8.87230788e-12
3.92538119e-08
3.27308595e-08
-5.98946894e-13
1.95307433e-09
-1.83842403e-13
5.72369632e-09
-7.07500854e-13
9.2948321e-09
-1.27098815e-12
1.2672603e-08
-1.91116043e-12
1.58633569e-08
-2.61491099e-12
1.88732667e-08
-3.36144449e-12
2.17081852e-08
-4.1270696e-12
2.43736083e-08
-4.88834697e-12
2.68747126e-08
-5.62184999e-12
2.92164465e-08
-6.30208077e-12
3.14035871e-08
-6.90557753e-12
3.3440766e-08
-7.41177128e-12
3.53324978e-08
-7.79517862e-12
3.70831794e-08
-8.02674336e-12
3.86970766e-08
-8.0875945e-12
4.01782976e-08
-7.93072833e-12
4.1530733e-08
-7.51421023e-12
4.27580273e-08
-6.83686756e-12
4.38635096e-08
-5.91392871e-12
4.48501858e-08
-4.76916847e-12
4.57207408e-08
-3.41318375e-12
4.64775875e-08
-1.99361474e-12
4.71228971e-08
-6.67305681e-13
4.76585447e-08
4.99438673e-13
4.8086061e-08
1.5382303e-12
4.84065296e-08
2.48783383e-12
4.86204909e-08
3.23790446e-12
4.87277528e-08
3.67066447e-12
4.87271672e-08
3.78145277e-12
4.86162691e-08
3.72567172e-12
4.83907299e-08
3.69782171e-12
4.80435519e-08
3.84992611e-12
4.75637121e-08
4.22641909e-12
4.6933917e-08
4.98205203e-12
4.61265167e-08
6.22717591e-12
4.50955651e-08
8.13665255e-12
4.3759847e-08
1.07575755e-11
4.19627433e-08
9.39545504e-12
3.92513833e-08
3.27289317e-08
-5.3885106e-13
1.95311769e-09
8.79062093e-15
5.72381325e-09
-3.17011436e-13
9.29499727e-09
-6.0388531e-13
1.26727942e-08
-9.02647985e-13
1.58635582e-08
-1.21002286e-12
1.88734664e-08
-1.51583925e-12
2.1708373e-08
-1.81049109e-12
2.4373774e-08
-2.08217805e-12
2.68748463e-08
-2.31615758e-12
2.92165386e-08
-2.50095424e-12
3.14036294e-08
-2.62257778e-12
3.34407516e-08
-2.63655103e-12
3.53324216e-08
-2.54143224e-12
3.70830375e-08
-2.40045245e-12
3.86968661e-08
-2.21830245e-12
4.01780159e-08
-2.01418568e-12
4.15303774e-08
-1.84009172e-12
4.27575946e-08
-1.71950811e-12
4.38629963e-08
-1.67580062e-12
4.48495884e-08
-1.66596407e-12
4.57200566e-08
-1.67107939e-12
4.64768156e-08
-1.62534728e-12
4.71220381e-08
-1.53948598e-12
4.76576006e-08
-1.42926142e-12
4.80850347e-08
-1.3151255e-12
4.84054248e-08
-1.18810404e-12
4.86193112e-08
-9.34130491e-13
4.87265014e-08
-5.61839194e-13
4.87258454e-08
-8.76325599e-14
4.8614875e-08
5.24971262e-13
4.83892565e-08
1.20386103e-12
4.80419851e-08
1.92077514e-12
4.75620287e-08
2.70529925e-12
4.69320841e-08
3.72384346e-12
4.61244937e-08
5.14594786e-12
4.50933113e-08
7.230362e-12
4.37573396e-08
1.01288088e-11
4.19600102e-08
9.08997199e-12
3.92485606e-08
3.27266169e-08
-6.25670791e-13
1.95314948e-09
-1.16982777e-13
5.72389659e-09
-5.82368465e-13
9.29510865e-09
-1.05815841e-12
1.26729134e-08
-1.59614101e-12
1.58636716e-08
-2.18987722e-12
1.88735641e-08
-2.82511752e-12
2.17084469e-08
-3.48319444e-12
2.43738161e-08
-4.14796457e-12
2.68748485e-08
-4.80771045e-12
2.92164935e-08
-5.45273217e-12
3.14035306e-08
-6.08626786e-12
3.34405943e-08
-6.74949132e-12
3.53322026e-08
-7.44535527e-12
3.7082755e-08
-8.10976681e-12
3.86965194e-08
-8.73808939e-12
4.01776044e-08
-9.31136397e-12
4.15299004e-08
-9.73792476e-12
4.27570507e-08
-9.95620202e-12
4.3862383e-08
-9.969434e-12
4.48489026e-08
-9.7421509e-12
4.57192956e-08
-9.29147379e-12
4.64759778e-08
-8.70386919e-12
4.71211232e-08
-7.97907279e-12
4.76566094e-08
-7.12214417e-12
4.80839692e-08
-6.21116529e-12
4.84042876e-08
-5.34667975e-12
4.86181053e-08
-4.59934453e-12
4.87252293e-08
-3.88337555e-12
4.87245086e-08
-3.12672003e-12
4.8613472e-08
-2.29955979e-12
4.83877814e-08
-1.38172478e-12
4.80404249e-08
-3.37175678e-13
4.7560362e-08
8.98168714e-13
4.69302797e-08
2.41956848e-12
4.61225132e-08
4.30107545e-12
4.5091117e-08
6.76209035e-12
4.3754912e-08
9.81548413e-12
4.19573812e-08
8.76539605e-12
3.92458745e-08
3.27244813e-08
-5.79117643e-13
1.95319393e-09
-9.54970084e-14
5.72401842e-09
-5.25712743e-13
9.29528359e-09
-9.62170861e-13
1.26731201e-08
-1.44803644e-12
1.58638944e-08
-1.97376723e-12
1.88737915e-08
-2.52322204e-12
2.17086689e-08
-3.07792954e-12
2.43740227e-08
-3.61873574e-12
2.68750301e-08
-4.12733429e-12
2.92166409e-08
-4.58918522e-12
3.14036357e-08
-4.99283068e-12
3.34406505e-08
-5.33149707e-12
3.5332205e-08
-5.60408886e-12
3.70827e-08
-5.81738238e-12
3.86964044e-08
-5.98036976e-12
4.01774272e-08
-6.12237943e-12
4.15296586e-08
-6.28232885e-12
4.27567414e-08
-6.46577625e-12
4.38620031e-08
-6.58866722e-12
4.48484488e-08
-6.5944205e-12
4.57187653e-08
-6.46825021e-12
4.64753698e-08
-6.21263152e-12
4.7120438e-08
-5.83513241e-12
4.76558487e-08
-5.34596669e-12
4.80831358e-08
-4.76008801e-12
4.8403385e-08
-4.10276208e-12
4.86171371e-08
-3.39951531e-12
4.87241991e-08
-2.65790137e-12
4.87234181e-08
-1.87385454e-12
4.86123205e-08
-1.02337842e-12
4.83865633e-08
-6.01431897e-14
4.80391279e-08
1.09291062e-12
4.75589649e-08
2.52514786e-12
4.6928752e-08
4.27145258e-12
4.61208168e-08
6.13774874e-12
4.50892148e-08
8.10818124e-12
4.37527852e-08
1.02765309e-11
4.19550628e-08
8.49700802e-12
3.92435099e-08
3.27226703e-08
-5.61784325e-13
1.9532365e-09
-1.18295861e-13
5.72413588e-09
-5.67381894e-13
9.29545275e-09
-1.03837944e-12
1.26733201e-08
-1.56899058e-12
1.58641099e-08
-2.14916268e-12
1.88740112e-08
-2.76286105e-12
2.1708883e-08
-3.39176048e-12
2.43742218e-08
-4.01782091e-12
2.68752048e-08
-4.6234642e-12
2.92167825e-08
-5.19293204e-12
3.14037365e-08
-5.71317939e-12
3.34407047e-08
-6.1753798e-12
3.53322082e-08
-6.57699092e-12
3.70826495e-08
-6.91863068e-12
3.86962983e-08
-7.1990379e-12
4.01772641e-08
-7.41709264e-12
4.15294371e-08
-7.56878661e-12
4.27564597e-08
-7.64831899e-12
4.38616585e-08
-7.64348187e-12
4.48480386e-08
-7.51938764e-12
4.57182873e-08
-7.26181719e-12
4.64748233e-08
-6.86960489e-12
4.71198236e-08
-6.33003661e-12
4.76551682e-08
-5.62695884e-12
4.80823916e-08
-4.74797034e-12
4.84025799e-08
-3.67564287e-12
4.86162742e-08
-2.40295713e-12
4.87232804e-08
-9.61443962e-13
4.87224441e-08
5.3734972e-13
4.86112885e-08
1.85267071e-12
4.83854659e-08
2.88178138e-12
4.80379513e-08
3.61056387e-12
4.75576869e-08
4.1668366e-12
4.69273417e-08
4.9153894e-12
4.6119237e-08
6.13634676e-12
4.50874291e-08
7.92942911e-12
4.37507763e-08
1.01950254e-11
4.1952865e-08
8.43213065e-12
3.92412702e-08
3.27209774e-08
-5.26093035e-13
1.95328596e-09
-1.06748565e-13
5.7242745e-09
-5.36420748e-13
9.29565714e-09
-9.86873141e-13
1.2673569e-08
-1.49256607e-12
1.58643874e-08
-2.04327101e-12
1.88743056e-08
-2.62311954e-12
2.17091842e-08
-3.21342732e-12
2.437452e-08
-3.79284158e-12
2.68754905e-08
-4.34065684e-12
2.92170467e-08
-4.83800606e-12
3.14039715e-08
-5.26975763e-12
3.34409042e-08
-5.62077973e-12
3.53323676e-08
-5.86753413e-12
3.70827655e-08
-6.00497814e-12
3.86963685e-08
-6.01431225e-12
4.01772865e-08
-5.84614217e-12
4.15294092e-08
-5.49723769e-12
4.27563782e-08
-4.95139537e-12
4.38615194e-08
-4.15385447e-12
4.48478374e-08
-3.14979117e-12
4.571802e-08
-2.0815448e-12
4.64744867e-08
-1.03169544e-12
4.71194164e-08
-6.72262786e-14
4.76546903e-08
7.5137636e-13
4.80818442e-08
1.36610395e-12
4.84019651e-08
1.73129383e-12
4.86155946e-08
1.9174954e-12
4.87225384e-08
2.07224522e-12
4.8721641e-08
2.30802157e-12
4.86104227e-08
2.73826365e-12
4.83845309e-08
3.33901973e-12
4.80369335e-08
4.13973965e-12
4.75565638e-08
5.21959312e-12
4.69260812e-08
6.4422057e-12
4.61177998e-08
7.64347761e-12
4.50857771e-08
9.11395462e-12
4.37488897e-08
1.07793646e-11
4.19507757e-08
8.52495101e-12
3.92391155e-08
3.27193194e-08
-4.90065796e-13
1.95332802e-09
1.77853437e-14
5.72438989e-09
-2.8665856e-13
9.2958227e-09
-5.61663947e-13
1.26737637e-08
-8.51970941e-13
1.58645955e-08
-1.15418362e-12
1.88745152e-08
-1.45903059e-12
2.1709385e-08
-1.75551957e-12
2.43747019e-08
-2.03382266e-12
2.68756435e-08
-2.28531789e-12
2.92171617e-08
-2.50707589e-12
3.14040403e-08
-2.70005459e-12
3.34409205e-08
-2.87280142e-12
3.53323267e-08
-3.04931956e-12
3.70826641e-08
-3.24507112e-12
3.86962044e-08
-3.49338443e-12
4.0177058e-08
-3.85857738e-12
4.15291148e-08
-4.29650767e-12
4.27560161e-08
-4.70968989e-12
4.38610876e-08
-5.10026393e-12
4.48473336e-08
-5.41626997e-12
4.57174426e-08
-5.50191178e-12
4.64738358e-08
-5.30956419e-12
4.71186929e-08
-4.91109838e-12
4.76538961e-08
-4.33099488e-12
4.80809817e-08
-3.57449645e-12
4.8401037e-08
-2.59530965e-12
4.86146034e-08
-1.44377907e-12
4.8721486e-08
-2.5183747e-13
4.87205271e-08
8.5864227e-13
4.8609244e-08
1.8248107e-12
4.83832794e-08
2.70721782e-12
4.80355941e-08
3.60340803e-12
4.75551128e-08
4.49551067e-12
4.69244856e-08
5.44949815e-12
4.61160192e-08
6.65762068e-12
4.50837716e-08
8.27540847e-12
4.37466377e-08
1.02212802e-11
4.1948306e-08
8.32254156e-12
3.92365618e-08
3.27172451e-08
-5.48987304e-13
1.95337018e-09
-1.67423726e-13
5.72450787e-09
-6.56446695e-13
9.29599438e-09
-1.18650996e-12
1.26739687e-08
-1.78738433e-12
1.5864819e-08
-2.44356541e-12
1.88747464e-08
-3.13351426e-12
2.17096148e-08
-3.83057989e-12
2.43749218e-08
-4.50674628e-12
2.6875845e-08
-5.13604142e-12
2.92173369e-08
-5.7190228e-12
3.14041825e-08
-6.26119766e-12
3.34410244e-08
-6.73069816e-12
3.53323885e-08
-7.13780642e-12
3.70826815e-08
-7.46569651e-12
3.86961758e-08
-7.64651213e-12
4.01769821e-08
-7.6491572e-12
4.15289899e-08
-7.48120932e-12
4.27558395e-08
-7.17283118e-12
4.38608557e-08
-6.66281423e-12
4.48470424e-08
-5.96077346e-12
4.57170886e-08
-5.15418529e-12
4.64734162e-08
-4.26013892e-12
4.71182066e-08
-3.28624056e-12
4.76533429e-08
-2.28820439e-12
4.80803626e-08
-1.24500607e-12
4.84003535e-08
-1.82954169e-13
4.86138573e-08
8.11665202e-13
4.87206784e-08
1.67313166e-12
4.87196576e-08
2.42546611e-12
4.86083091e-08
3.16651692e-12
4.83822705e-08
3.93197307e-12
4.80344957e-08
4.69166607e-12
4.75539005e-08
5.48410387e-12
4.69231253e-08
6.38637294e-12
4.61144696e-08
7.46757308e-12
4.50819924e-08
8.89617564e-12
4.37446078e-08
1.06590178e-11
4.19460567e-08
8.62879522e-12
3.92342336e-08
3.27154059e-08
-4.61181732e-13
1.95342156e-09
-4.56433048e-14
5.72465278e-09
-3.95932223e-13
9.29620929e-09
-7.41260955e-13
1.26742316e-08
-1.11109181e-12
1.58651133e-08
-1.49449228e-12
1.88750596e-08
-1.87634853e-12
2.17099362e-08
-2.24196633e-12
2.43752411e-08
-2.57682667e-12
2.68761523e-08
-2.86655949e-12
2.92176227e-08
-3.07021567e-12
3.14044387e-08
-3.15121255e-12
3.34412442e-08
-3.12543696e-12
3.53325667e-08
-2.97605389e-12
3.70828141e-08
-2.72061775e-12
3.86962599e-08
-2.44945508e-12
4.01770148e-08
-2.18192818e-12
4.15289684e-08
-1.87118942e-12
4.27557607e-08
-1.55066412e-12
4.38607159e-08
-1.2733369e-12
4.48468378e-08
-9.95518211e-13
4.57168159e-08
-6.63026327e-13
4.64730737e-08
-2.75614701e-13
4.71177936e-08
2.34905643e-13
4.765286e-08
9.16324899e-13
4.8079811e-08
1.70991716e-12
4.83997349e-08
2.5237954e-12
4.86131731e-08
3.30191232e-12
4.87199294e-08
4.00248314e-12
4.8718843e-08
4.60506517e-12
4.86074249e-08
5.11477139e-12
4.83813075e-08
5.55313043e-12
4.80334378e-08
5.95599058e-12
4.75527224e-08
6.3793348e-12
4.6921792e-08
6.90207572e-12
4.61129389e-08
7.60054152e-12
4.50802231e-08
8.72010272e-12
4.37425778e-08
1.05082612e-11
4.19437962e-08
8.65163051e-12
3.92318785e-08
3.27135171e-08
-4.89540645e-13
1.95346196e-09
-6.20728316e-14
5.72476463e-09
-4.37804273e-13
9.29636981e-09
-8.12910911e-13
1.26744201e-08
-1.22444407e-12
1.58653147e-08
-1.665087e-12
1.88752631e-08
-2.12209246e-12
2.17101331e-08
-2.58079391e-12
2.43754228e-08
-3.02557014e-12
2.68763106e-08
-3.4391257e-12
2.92177501e-08
-3.80642651e-12
3.14045284e-08
-4.11383335e-12
3.34412912e-08
-4.34570572e-12
3.53325673e-08
-4.48606266e-12
3.7082766e-08
-4.51767969e-12
3.86961614e-08
-4.4095302e-12
4.01768645e-08
-4.15843372e-12
4.15287643e-08
-3.83558263e-12
4.27555001e-08
-3.44351894e-12
4.38603952e-08
-2.97209839e-12
4.48464532e-08
-2.43837156e-12
4.57163639e-08
-1.8453987e-12
4.64725518e-08
-1.19464503e-12
4.71172008e-08
-4.89537418e-13
4.76521963e-08
2.61306465e-13
4.80790769e-08
1.04001166e-12
4.83989316e-08
1.81892109e-12
4.86123018e-08
2.55685139e-12
4.87189905e-08
3.20461403e-12
4.87178353e-08
3.71621605e-12
4.8606344e-08
4.05679425e-12
4.83801445e-08
4.24004403e-12
4.80321765e-08
4.36505079e-12
4.7551338e-08
4.73406361e-12
4.692025e-08
5.54469084e-12
4.61111972e-08
6.79501064e-12
4.50782397e-08
8.56259227e-12
4.37403291e-08
1.07286977e-11
4.19413105e-08
9.00105337e-12
3.92292904e-08
3.2711394e-08
-4.92822401e-13
1.9535029e-09
-3.75476581e-14
5.72487735e-09
-3.88291613e-13
9.29653097e-09
-7.23536516e-13
1.26746085e-08
-1.08384395e-12
1.58655155e-08
-1.46257942e-12
1.88754655e-08
-1.84750096e-12
2.17103281e-08
-2.22457551e-12
2.43756019e-08
-2.57858955e-12
2.68764653e-08
-2.89297782e-12
2.92178726e-08
-3.15437615e-12
3.14046119e-08
-3.35440854e-12
3.34413301e-08
-3.4860924e-12
3.53325577e-08
-3.54379169e-12
3.70827049e-08
-3.52681357e-12