/*--------------------------------*- C++ -*----------------------------------*\
  =========                 |
  \\      /  F ield         | OpenFOAM: The Open Source CFD Toolbox
   \\    /   O peration     | Website:  https://openfoam.org
    \\  /    A nd           | Version:  10
     \\/     M anipulation  |
\*---------------------------------------------------------------------------*/
FoamFile
{
    format      ascii;
    class       volScalarField;
    location    "0.5";
    object      thermalPhaseChange:Tf.gas_liquid;
}
// * * * * * * * * * * * * * * * * * * * * * * * * * * * * * * * * * * * * * //

dimensions      [0 0 0 1 0 0 0];

internalField   nonuniform List<scalar> 
14000
(
341.682547
341.682547
341.682547
341.682547
341.682548
341.68255
341.682552
341.682555
341.682559
341.682564
341.682571
341.682578
341.682587
341.682598
341.68261
341.682624
341.68264
341.682657
341.682677
341.682699
341.682723
341.682751
341.682781
341.682816
341.682854
341.682897
341.682946
341.683
341.683062
341.683131
341.683211
341.683302
341.68341
341.683537
341.68369
341.683881
341.684128
341.68446
341.684955
341.686018
341.69105
341.691051
341.691054
341.691057
341.691061
341.691068
341.691076
341.691086
341.691099
341.691114
341.691133
341.691155
341.691181
341.691212
341.691247
341.691286
341.69133
341.691379
341.691433
341.691493
341.691558
341.691628
341.691706
341.69179
341.691882
341.691984
341.692098
341.692225
341.692363
341.692515
341.692682
341.69287
341.693082
341.693316
341.693574
341.693862
341.694185
341.694551
341.694983
341.69565
341.69644
341.696439
341.69644
341.696441
341.696443
341.696445
341.696449
341.696453
341.696459
341.696466
341.696474
341.696484
341.696494
341.696506
341.696518
341.696532
341.696546
341.696561
341.696575
341.696591
341.696606
341.696623
341.69664
341.696658
341.696675
341.69669
341.696699
341.696704
341.696705
341.696703
341.696696
341.696679
341.696652
341.696614
341.696568
341.696512
341.696441
341.696355
341.696233
341.696012
341.697169
341.697167
341.697165
341.697162
341.69716
341.697157
341.697154
341.69715
341.697146
341.697141
341.697135
341.697128
341.697121
341.697112
341.697101
341.697089
341.697076
341.697061
341.697045
341.697028
341.697009
341.696987
341.696961
341.696931
341.696896
341.696856
341.696812
341.696761
341.696701
341.696629
341.69654
341.696431
341.696295
341.696125
341.695908
341.695626
341.695252
341.694738
341.693986
341.692444
341.696253
341.69625
341.696246
341.696241
341.696234
341.696224
341.696213
341.696198
341.696181
341.69616
341.696136
341.696107
341.696073
341.696033
341.695987
341.695936
341.695877
341.695811
341.695737
341.695653
341.695558
341.69545
341.695328
341.695188
341.695024
341.694837
341.694622
341.694375
341.69409
341.693763
341.693386
341.692949
341.692438
341.691841
341.691135
341.690294
341.689281
341.688045
341.686467
341.683806
341.691638
341.691634
341.691624
341.69161
341.691589
341.691563
341.691529
341.691486
341.691435
341.691374
341.691303
341.69122
341.691125
341.691019
341.690898
341.690764
341.690614
341.690447
341.690261
341.690055
341.689827
341.689574
341.689295
341.688987
341.688651
341.68828
341.687871
341.68742
341.686922
341.686371
341.685762
341.685089
341.684343
341.683514
341.682592
341.681561
341.680406
341.679111
341.677616
341.675427
341.684053
341.684046
341.684032
341.68401
341.683979
341.68394
341.683889
341.683828
341.683753
341.683665
341.683562
341.683444
341.68331
341.683159
341.682992
341.682807
341.682604
341.682381
341.682137
341.681871
341.681583
341.68127
341.680931
341.680565
341.680172
341.679751
341.6793
341.678819
341.678308
341.677767
341.677195
341.676595
341.675966
341.675312
341.674638
341.673948
341.673283
341.672678
341.672168
341.671562
341.67611
341.676105
341.676091
341.676068
341.676037
341.675996
341.675944
341.675882
341.675807
341.67572
341.67562
341.675508
341.675382
341.675243
341.675091
341.674925
341.674746
341.674555
341.674353
341.674139
341.673913
341.673675
341.67343
341.673178
341.672918
341.672659
341.672408
341.672169
341.671947
341.671747
341.671577
341.671442
341.671349
341.671306
341.671308
341.671358
341.671432
341.671524
341.671624
341.671832
341.670575
341.670574
341.670569
341.670561
341.670549
341.670532
341.670512
341.670487
341.670458
341.670425
341.670389
341.67035
341.67031
341.670269
341.67023
341.670192
341.670157
341.670126
341.670101
341.670083
341.670075
341.670079
341.670094
341.670121
341.670165
341.67022
341.670286
341.670363
341.670451
341.670556
341.670683
341.670833
341.671008
341.67121
341.671456
341.671777
341.672207
341.672792
341.673629
341.67527
341.66932
341.669323
341.669327
341.669331
341.669335
341.66934
341.669346
341.669353
341.669361
341.669371
341.669385
341.669402
341.669423
341.669447
341.669476
341.669511
341.669552
341.669599
341.669654
341.669717
341.66979
341.669872
341.669968
341.670079
341.67021
341.670366
341.670552
341.670773
341.671039
341.671355
341.671728
341.672173
341.672707
341.673341
341.674093
341.67498
341.67602
341.677236
341.678707
341.681061
341.669614
341.669619
341.669627
341.669638
341.669652
341.669669
341.669691
341.669719
341.669753
341.669795
341.669845
341.669904
341.669975
341.670058
341.670154
341.670266
341.670397
341.670549
341.670724
341.670926
341.671161
341.671433
341.671742
341.672093
341.672488
341.672931
341.673424
341.673971
341.674573
341.675234
341.675955
341.676736
341.677581
341.6785
341.679499
341.680585
341.681764
341.683042
341.684466
341.686499
341.672534
341.672545
341.672566
341.672598
341.67264
341.672695
341.672764
341.672849
341.672951
341.673072
341.673213
341.673375
341.673561
341.673771
341.674007
341.674269
341.674559
341.674877
341.675224
341.675602
341.676011
341.676451
341.676925
341.677436
341.677983
341.678567
341.679186
341.679841
341.680528
341.681247
341.681994
341.682766
341.683559
341.68437
341.685192
341.686016
341.68683
341.687593
341.688242
341.688856
341.678519
341.678534
341.678564
341.678608
341.678668
341.678744
341.678839
341.678954
341.67909
341.679249
341.679431
341.679637
341.679867
341.680121
341.680399
341.680701
341.681025
341.681372
341.681741
341.68213
341.682541
341.68297
341.683417
341.68388
341.684354
341.684838
341.685328
341.685817
341.686302
341.686777
341.687234
341.687658
341.688027
341.68833
341.688552
341.68869
341.688753
341.688758
341.68873
341.688581
341.685184
341.685198
341.685225
341.685265
341.685319
341.685388
341.685473
341.685575
341.685694
341.685829
341.685981
341.686148
341.686331
341.686528
341.686737
341.686955
341.687181
341.687414
341.687651
341.687886
341.688123
341.68835
341.688562
341.688754
341.688922
341.689059
341.689163
341.689229
341.689253
341.689236
341.689185
341.689106
341.689009
341.688884
341.688734
341.688553
341.688309
341.687946
341.687382
341.686227
341.689948
341.689953
341.689963
341.689977
341.689996
341.69002
341.690048
341.690079
341.690115
341.690152
341.69019
341.690226
341.69026
341.690289
341.69031
341.690323
341.690327
341.690315
341.690291
341.690254
341.690201
341.690135
341.69006
341.689974
341.689876
341.689761
341.689627
341.689475
341.689304
341.689109
341.688877
341.688593
341.68824
341.687812
341.687294
341.686661
341.685894
341.684979
341.683864
341.682073
341.690997
341.690996
341.690991
341.690984
341.690975
341.690963
341.690948
341.690931
341.690909
341.690882
341.690848
341.690809
341.690762
341.690708
341.690646
341.690575
341.690494
341.690403
341.690301
341.690182
341.690046
341.689887
341.6897
341.689481
341.689225
341.68893
341.688592
341.688199
341.68775
341.687241
341.686666
341.686029
341.685331
341.684575
341.683756
341.682862
341.681889
341.680834
341.679659
341.677999
341.690657
341.690652
341.690641
341.690623
341.690599
341.690567
341.690526
341.690475
341.690412
341.690338
341.690249
341.690144
341.690022
341.689879
341.689713
341.689522
341.689303
341.689049
341.688763
341.688442
341.688084
341.687689
341.687255
341.686784
341.686276
341.685733
341.685156
341.684549
341.683909
341.683235
341.682531
341.681799
341.681043
341.680267
341.679474
341.678668
341.677858
341.677059
341.676276
341.675397
341.688089
341.688076
341.688044
341.687996
341.687929
341.687844
341.687737
341.687608
341.687455
341.687277
341.687073
341.686841
341.686581
341.686294
341.68598
341.68564
341.685274
341.684885
341.684471
341.684031
341.683565
341.683075
341.682564
341.682032
341.681484
341.680923
341.680352
341.679775
341.679196
341.678619
341.67805
341.677495
341.676961
341.676456
341.67599
341.675587
341.67528
341.675083
341.67497
341.674835
341.682789
341.682771
341.68273
341.682668
341.682584
341.682477
341.682347
341.682191
341.68201
341.681803
341.681571
341.681315
341.681035
341.680734
341.680413
341.680076
341.679723
341.679357
341.67898
341.678594
341.678202
341.677807
341.677412
341.677022
341.67664
341.676273
341.675923
341.675597
341.675302
341.675046
341.674843
341.674704
341.674634
341.674633
341.674687
341.674779
341.67491
341.675076
341.675322
341.675933
341.67681
341.676796
341.676763
341.676712
341.676643
341.676557
341.676454
341.676332
341.676192
341.676037
341.675867
341.675685
341.675494
341.675294
341.67509
341.674885
341.674681
341.674482
341.674293
341.674112
341.673951
341.673814
341.673705
341.673628
341.673585
341.67358
341.673614
341.673682
341.673779
341.673901
341.674047
341.67422
341.674422
341.674653
341.674934
341.675295
341.675742
341.676297
341.67702
341.678199
341.672383
341.67238
341.672371
341.672356
341.672336
341.672312
341.672284
341.672255
341.672224
341.672196
341.67217
341.67215
341.672138
341.672138
341.672149
341.672173
341.672216
341.672273
341.672343
341.672431
341.672531
341.672642
341.672766
341.672908
341.673068
341.673248
341.673447
341.67367
341.673927
341.674226
341.674573
341.67497
341.675415
341.67592
341.676495
341.677132
341.677834
341.678613
341.679505
341.680803
341.671206
341.671213
341.671223
341.671236
341.671253
341.671275
341.671301
341.671333
341.671371
341.671416
341.67147
341.671535
341.671612
341.671698
341.671795
341.671905
341.672026
341.672163
341.672318
341.672492
341.67269
341.672918
341.673177
341.673469
341.673795
341.674156
341.674554
341.674992
341.675471
341.675986
341.67653
341.677098
341.677695
341.678321
341.678973
341.679649
341.680346
341.681056
341.681792
341.682748
341.671328
341.671339
341.671358
341.671384
341.671418
341.671462
341.671518
341.671588
341.671673
341.671776
341.671895
341.672033
341.672193
341.672376
341.672585
341.672824
341.673091
341.673385
341.673708
341.674061
341.674443
341.674851
341.675282
341.675733
341.676201
341.676687
341.67719
341.677708
341.678237
341.678775
341.679315
341.679855
341.68039
341.680915
341.681424
341.681909
341.682358
341.682738
341.683027
341.683225
341.673218
341.673239
341.67328
341.67334
341.673421
341.673522
341.673646
341.673795
341.673969
341.674169
341.674395
341.674647
341.674922
341.67522
341.675539
341.675874
341.676228
341.6766
341.676987
341.677389
341.677802
341.678224
341.678653
341.679084
341.679516
341.679944
341.680366
341.680778
341.681174
341.681552
341.681904
341.682227
341.682512
341.682741
341.682902
341.682995
341.683029
341.683024
341.682985
341.682809
341.677336
341.67736
341.677407
341.677476
341.677567
341.67768
341.677817
341.677978
341.678162
341.678368
341.678595
341.67884
341.679102
341.679377
341.679664
341.679958
341.680258
341.68056
341.680862
341.681162
341.681456
341.681741
341.682014
341.682272
341.682511
341.682726
341.682915
341.683066
341.683172
341.683232
341.683243
341.683215
341.683156
341.683073
341.682967
341.682837
341.682663
341.682405
341.682022
341.681298
341.681938
341.681956
341.681991
341.68204
341.682105
341.682184
341.682278
341.682385
341.682505
341.682636
341.682776
341.682921
341.683068
341.683217
341.683362
341.6835
341.683631
341.683747
341.683845
341.683922
341.683975
341.684002
341.684001
341.683971
341.683917
341.683842
341.683746
341.683635
341.683507
341.68336
341.683196
341.683007
341.682781
341.682507
341.682186
341.681804
341.681353
341.680834
341.680215
341.679256
341.685102
341.685106
341.685112
341.685119
341.685127
341.685135
341.685142
341.685148
341.68515
341.685146
341.685135
341.685116
341.685087
341.685044
341.68499
341.684927
341.68485
341.684765
341.684671
341.684567
341.684451
341.684322
341.684178
341.684021
341.683848
341.683653
341.683432
341.68318
341.682896
341.682582
341.682236
341.681852
341.681432
341.680983
341.680505
341.679993
341.679449
341.678872
341.678245
341.677383
341.685679
341.685676
341.685667
341.685652
341.685631
341.685603
341.685568
341.685525
341.685473
341.685412
341.685343
341.685262
341.685171
341.685071
341.684957
341.684829
341.684686
341.684525
341.684342
341.684136
341.683908
341.683655
341.683377
341.683074
341.682743
341.682386
341.682004
341.681603
341.68119
341.680763
341.680322
341.67987
341.679409
341.678943
341.678475
341.678007
341.677545
341.677095
341.67666
341.676168
341.685335
341.685326
341.685305
341.685272
341.685227
341.685169
341.685096
341.685008
341.684903
341.684779
341.684634
341.684467
341.684275
341.684059
341.683822
341.683562
341.683279
341.682976
341.682654
341.682315
341.681963
341.681598
341.681224
341.680839
341.680445
341.680044
341.679641
341.679238
341.678838
341.678444
341.67806
341.677688
341.677333
341.676998
341.676689
341.67641
341.676173
341.676004
341.675907
341.675836
341.683278
341.68326
341.683218
341.683152
341.683064
341.682954
341.68282
341.682662
341.68248
341.682275
341.682048
341.681802
341.681539
341.68126
341.680966
341.680659
341.680341
341.680014
341.679682
341.679346
341.679008
341.678671
341.678337
341.678009
341.677689
341.67738
341.677086
341.676808
341.676552
341.676319
341.676114
341.67594
341.675801
341.67571
341.675674
341.675692
341.675749
341.675836
341.675962
341.676246
341.679456
341.679438
341.679394
341.679328
341.67924
341.67913
341.679
341.678849
341.678679
341.678491
341.678288
341.678073
341.677847
341.677615
341.677377
341.677139
341.676901
341.676667
341.676438
341.676218
341.676009
341.675813
341.675633
341.675471
341.67533
341.675213
341.67512
341.675061
341.675038
341.675052
341.675103
341.67518
341.675282
341.675408
341.675557
341.675736
341.675961
341.676236
341.676585
341.677151
341.675365
341.675355
341.675328
341.675288
341.675234
341.675168
341.67509
341.675003
341.674907
341.674804
341.674697
341.674589
341.674483
341.674379
341.674283
341.674195
341.674118
341.674056
341.674012
341.673988
341.673985
341.674005
341.674047
341.674113
341.674197
341.674297
341.674413
341.674544
341.67469
341.674853
341.675033
341.675239
341.675475
341.67574
341.676033
341.676357
341.676718
341.677116
341.677566
341.678212
341.672585
341.672588
341.67259
341.672591
341.672592
341.672595
341.672599
341.672607
341.67262
341.672642
341.672671
341.672708
341.672757
341.672818
341.672887
341.672967
341.673057
341.673156
341.673262
341.673379
341.673507
341.673648
341.6738
341.673965
341.674147
341.674347
341.674566
341.674807
341.675066
341.675343
341.675637
341.675949
341.67628
341.676622
341.676978
341.677346
341.677724
341.678109
341.678508
341.679031
341.67199
341.671999
341.672012
341.672031
341.672056
341.672089
341.672129
341.672178
341.672237
341.672305
341.672383
341.672473
341.672572
341.672682
341.672805
341.672943
341.673093
341.67326
341.673444
341.673645
341.673864
341.6741
341.67435
341.674615
341.674895
341.67519
341.675497
341.675811
341.676129
341.67645
341.676773
341.677097
341.677418
341.677734
341.678042
341.678337
341.678615
341.678865
341.679071
341.679228
341.67216
341.672175
341.672201
341.672238
341.672286
341.672347
341.672421
341.672511
341.672618
341.672743
341.672886
341.67305
341.673231
341.67343
341.673646
341.673877
341.674124
341.674384
341.674654
341.674931
341.675214
341.675501
341.675792
341.676086
341.676381
341.676674
341.676964
341.677247
341.677521
341.677785
341.678035
341.678269
341.678484
341.678676
341.67884
341.678961
341.679039
341.679077
341.679086
341.679022
341.673712
341.673735
341.673778
341.673839
341.67392
341.674021
341.674141
341.67428
341.674438
341.674614
341.674806
341.67501
341.675227
341.675454
341.675691
341.675933
341.67618
341.676429
341.676678
341.676925
341.677168
341.677406
341.677637
341.677858
341.678068
341.678265
341.678446
341.678609
341.678753
341.678874
341.678968
341.679028
341.679052
341.679046
341.679018
341.678973
341.678913
341.67882
341.678665
341.67835
341.676557
341.676578
341.676617
341.676673
341.676745
341.676833
341.676937
341.677056
341.677188
341.677331
341.677484
341.677644
341.677809
341.677976
341.678142
341.678306
341.678465
341.678617
341.678761
341.678894
341.679015
341.679123
341.679214
341.679289
341.679342
341.679371
341.679374
341.679351
341.679309
341.67925
341.679176
341.679088
341.678987
341.678871
341.678727
341.678554
341.678343
341.678088
341.677781
341.677292
341.679448
341.67946
341.679481
341.679508
341.679543
341.679585
341.679633
341.679687
341.679745
341.679803
341.679861
341.679918
341.67997
341.680015
341.68005
341.680073
341.680083
341.68008
341.680061
341.680026
341.679976
341.679914
341.679841
341.679758
341.679665
341.679562
341.679448
341.679325
341.679187
341.679033
341.678859
341.678667
341.678457
341.678224
341.67797
341.677698
341.677403
341.677086
341.676735
341.676235
341.681062
341.681062
341.681057
341.681049
341.681036
341.681019
341.680997
341.680968
341.680932
341.680891
341.680843
341.680787
341.680724
341.680654
341.680579
341.680497
341.680408
341.68031
341.680204
341.680089
341.679967
341.679833
341.679687
341.679526
341.67935
341.679159
341.678955
341.678739
341.678508
341.678263
341.678009
341.677747
341.677478
341.677202
341.676921
341.676637
341.67635
341.676062
341.67577
341.675401
341.681164
341.681161
341.681151
341.681133
341.681108
341.681074
341.681032
341.680983
341.680924
341.680854
341.680774
341.680683
341.680581
341.680466
341.680337
341.680195
341.68004
341.679873
341.67969
341.679496
341.679289
341.679069
341.678836
341.678593
341.678343
341.678091
341.677835
341.677577
341.677317
341.677058
341.676802
341.67655
341.676304
341.676066
341.675838
341.675623
341.675422
341.675241
341.675083
341.674944
341.680702
341.680693
341.680668
341.68063
341.680577
341.68051
341.680426
341.680325
341.680207
341.680073
341.679922
341.679755
341.679573
341.679377
341.67917
341.678953
341.678729
341.678499
341.678266
341.678028
341.677787
341.677543
341.677298
341.677055
341.676816
341.676581
341.676353
341.676133
341.675923
341.675725
341.67554
341.67537
341.675217
341.675083
341.674971
341.674883
341.674827
341.674813
341.674834
341.674891
341.678853
341.678839
341.678802
341.678746
341.67867
341.678577
341.678466
341.678339
341.678197
341.678039
341.677868
341.677686
341.677494
341.677296
341.677093
341.676887
341.67668
341.676475
341.676271
341.676072
341.675877
341.675689
341.675509
341.675338
341.675178
341.675031
341.674898
341.67478
341.67468
341.674597
341.674533
341.674491
341.674473
341.674483
341.674521
341.674581
341.674661
341.67476
341.674893
341.675114
341.67607
341.676059
341.67603
341.675984
341.675922
341.675847
341.675759
341.675659
341.675549
341.675429
341.675303
341.675172
341.675038
341.674905
341.674773
341.674644
341.674521
341.674404
341.674296
341.674197
341.674109
341.674032
341.673969
341.673919
341.673884
341.673865
341.673865
341.673884
341.673923
341.67398
341.674051
341.674135
341.674233
341.674343
341.674466
341.674612
341.67478
341.674969
341.67519
341.675519
341.673361
341.673359
341.673347
341.673328
341.673302
341.673271
341.673236
341.673197
341.673155
341.673112
341.673071
341.673032
341.672998
341.672969
341.672947
341.672934
341.672932
341.672941
341.672962
341.672995
341.673041
341.673099
341.673168
341.673245
341.67333
341.673425
341.673528
341.673638
341.673757
341.673885
341.674027
341.674181
341.674346
341.67452
341.674705
341.674901
341.675107
341.675322
341.675551
341.675862
341.671782
341.67179
341.671799
341.671811
341.671826
341.671844
341.671866
341.671893
341.671928
341.671969
341.672016
341.672069
341.672129
341.672196
341.672268
341.672345
341.672428
341.672518
341.672615
341.672718
341.672828
341.672944
341.673069
341.673203
341.673348
341.673501
341.673661
341.673829
341.674003
341.674182
341.674365
341.674552
341.67474
341.674929
341.675117
341.675303
341.675483
341.675654
341.67581
341.675956
341.671534
341.671544
341.671557
341.671576
341.671601
341.671632
341.671671
341.671718
341.671772
341.671835
341.671907
341.671988
341.672079
341.67218
341.672289
341.672409
341.672539
341.672677
341.672825
341.67298
341.673142
341.67331
341.673483
341.673662
341.673844
341.674029
341.674213
341.674395
341.674575
341.674751
341.674922
341.675086
341.675243
341.675389
341.675524
341.675643
341.67574
341.675812
341.675857
341.675857
341.671752
341.671768
341.671793
341.671828
341.671873
341.671929
341.671999
341.672081
341.672177
341.672285
341.672405
341.672537
341.672679
341.67283
341.67299
341.673155
341.673324
341.673496
341.673668
341.673841
341.674013
341.674185
341.674355
341.674521
341.674682
341.674837
341.674985
341.675124
341.675253
341.675371
341.675476
341.675567
341.675642
341.675695
341.675723
341.675732
341.675729
341.675713
341.675671
341.675536
341.673018
341.673036
341.673069
341.673115
341.673174
341.673246
341.67333
341.673426
341.673532
341.673649
341.673774
341.673907
341.674045
341.674186
341.674329
341.674471
341.674612
341.67475
341.674884
341.675013
341.675136
341.675252
341.675359
341.675457
341.675544
341.675619
341.675682
341.675731
341.675764
341.675778
341.675772
341.675751
341.675717
341.675673
341.67562
341.675554
341.675465
341.675345
341.675187
341.674932
341.674939
341.674954
341.674978
341.675011
341.675053
341.675104
341.675163
341.675228
341.6753
341.675376
341.675455
341.675535
341.675615
341.675693
341.675768
341.675837
341.675901
341.675958
341.676006
341.676045
341.676075
341.676093
341.676097
341.676086
341.676061
341.676024
341.675977
341.675921
341.675856
341.675783
341.675702
341.675611
341.675505
341.675386
341.675251
341.675098
341.674927
341.674736
341.674516
341.674187
341.676671
341.676678
341.676685
341.676694
341.676703
341.676713
341.676724
341.676734
341.676742
341.676747
341.676749
341.676745
341.676735
341.676719
341.676694
341.676661
341.67662
341.676571
341.676516
341.676455
341.676388
341.676314
341.676234
341.676148
341.676056
341.675956
341.675847
341.675729
341.6756
341.675461
341.675314
341.675156
341.674988
341.674812
341.674628
341.674436
341.674236
341.674027
341.673804
341.673494
341.677332
341.677332
341.677324
341.67731
341.677291
341.677266
341.677236
341.677201
341.677159
341.677113
341.677062
341.677005
341.676941
341.676871
341.676795
341.676713
341.676625
341.676531
341.67643
341.676321
341.676204
341.676077
341.675942
341.675798
341.675646
341.675488
341.675322
341.675148
341.674971
341.674792
341.67461
341.674426
341.674241
341.674056
341.673873
341.673691
341.673512
341.673338
341.673164
341.67294
341.677258
341.677257
341.677246
341.677228
341.677201
341.677166
341.677123
341.67707
341.677008
341.676936
341.676853
341.67676
341.676657
341.676543
341.67642
341.676287
341.676146
341.675997
341.675839
341.675673
341.675501
341.675324
341.675146
341.674966
341.674785
341.674603
341.674422
341.674242
341.674065
341.673892
341.673724
341.673561
341.673406
341.673258
341.67312
341.672993
341.672877
341.672776
341.672689
341.672611
341.67665
341.676643
341.676619
341.67658
341.676527
341.676461
341.676381
341.676287
341.676181
341.676062
341.675931
341.67579
341.675641
341.675486
341.675325
341.67516
341.674993
341.674822
341.67465
341.674477
341.674304
341.674133
341.673965
341.673801
341.673641
341.673486
341.673338
341.673198
341.673066
341.672943
341.672831
341.67273
341.672641
341.672565
341.672504
341.672458
341.672429
341.672422
341.672443
341.672502
341.675011
341.675002
341.674974
341.674931
341.674873
341.674801
341.674716
341.674619
341.674511
341.674393
341.674267
341.674135
341.673998
341.673858
341.673717
341.673576
341.673436
341.673298
341.673164
341.673033
341.672908
341.672788
341.672675
341.67257
341.672474
341.672387
341.672309
341.672243
341.672187
341.672143
341.672112
341.672093
341.672088
341.672097
341.672123
341.672164
341.672219
341.672288
341.672373
341.672511
341.672871
341.672866
341.672847
341.672816
341.672775
341.672725
341.672666
341.672599
341.672527
341.672449
341.672368
341.672285
341.672201
341.672119
341.672038
341.671962
341.67189
341.671823
341.671762
341.671708
341.671662
341.671624
341.671594
341.671573
341.671562
341.671561
341.67157
341.67159
341.671622
341.671664
341.671715
341.671773
341.671839
341.671913
341.671992
341.67208
341.672178
341.672285
341.672402
341.672555
341.670924
341.670926
341.670922
341.670913
341.670901
341.670886
341.670869
341.670851
341.670833
341.670817
341.670801
341.670788
341.670778
341.670773
341.670773
341.67078
341.670793
341.670813
341.67084
341.670875
341.670916
341.670965
341.67102
341.671079
341.671143
341.671212
341.671285
341.671363
341.671444
341.671529
341.671619
341.671715
341.671815
341.671918
341.672023
341.672131
341.67224
341.672346
341.672449
341.67255
341.669887
341.669896
341.669907
341.669919
341.669935
341.669954
341.669977
341.670004
341.670035
341.670071
341.670112
341.670157
341.670207
341.670261
341.670318
341.670379
341.670444
341.670513
341.670586
341.670663
341.670744
341.670827
341.670915
341.671009
341.671106
341.671208
341.671311
341.671417
341.671524
341.67163
341.671737
341.671842
341.671945
341.672044
341.672138
341.672225
341.672304
341.67237
341.672419
341.672444
341.669735
341.669745
341.669757
341.669773
341.669794
341.669819
341.66985
341.669887
341.669931
341.669981
341.670038
341.670103
341.670173
341.670249
341.670333
341.670421
341.670515
341.670613
341.670716
341.670822
341.67093
341.67104
341.671151
341.671262
341.671373
341.671482
341.671589
341.671692
341.67179
341.671882
341.671968
341.672047
341.672116
341.672174
341.672217
341.672248
341.672267
341.672276
341.672267
341.672189
341.669926
341.66994
341.66996
341.669988
341.670025
341.67007
341.670123
341.670185
341.670256
341.670335
341.670422
341.670515
341.670614
341.670718
341.670824
341.670933
341.671041
341.671149
341.671256
341.67136
341.671462
341.671561
341.671656
341.671747
341.671831
341.671908
341.671978
341.67204
341.672091
341.672133
341.672163
341.672176
341.672175
341.672164
341.672144
341.672116
341.672071
341.671998
341.671894
341.671717
341.670884
341.670899
341.670923
341.670954
341.670993
341.67104
341.671095
341.671157
341.671225
341.671299
341.671378
341.671459
341.671542
341.671625
341.671707
341.671787
341.671863
341.671936
341.672003
341.672065
341.672121
341.672169
341.672209
341.672241
341.672263
341.672275
341.672275
341.67226
341.672234
341.6722
341.672155
341.672103
341.672042
341.671969
341.67188
341.671771
341.671644
341.671495
341.671315
341.671032
341.672227
341.672238
341.672252
341.672271
341.672292
341.672318
341.672347
341.672379
341.672413
341.672448
341.672483
341.672516
341.672547
341.672575
341.672598
341.672616
341.672628
341.672633
341.672631
341.672619
341.672597
341.672564
341.672523
341.672474
341.672419
341.672356
341.672285
341.672209
341.672124
341.672029
341.671923
341.671807
341.671679
341.671538
341.671385
341.671218
341.671037
341.67084
341.670617
341.670287
341.673332
341.673336
341.673336
341.673332
341.673326
341.673317
341.673306
341.673292
341.673274
341.673251
341.673223
341.673189
341.67315
341.673104
341.673053
341.672998
341.672938
341.672874
341.672802
341.672726
341.672644
341.672557
341.672464
341.672362
341.672252
341.672135
341.672008
341.671873
341.671731
341.671579
341.67142
341.671254
341.671081
341.670901
341.670715
341.670521
341.670321
341.670112
341.669888
341.669574
341.673594
341.673595
341.673588
341.673574
341.673553
341.673527
341.673495
341.673456
341.67341
341.673358
341.6733
341.673234
341.673162
341.673084
341.672999
341.672907
341.672807
341.6727
341.672585
341.672461
341.67233
341.67219
341.672044
341.67189
341.671729
341.671563
341.671393
341.671219
341.671042
341.670862
341.67068
341.670497
341.670312
341.670127
341.669942
341.669757
341.669572
341.669388
341.669198
341.668944
341.673457
341.673456
341.673444
341.673422
341.67339
341.673349
341.673297
341.673236
341.673165
341.673082
341.672989
341.672885
341.67277
341.672645
341.67251
341.672368
341.672217
341.672059
341.671895
341.671728
341.671558
341.671385
341.671209
341.671031
341.670852
341.670672
341.670493
341.670315
341.670139
341.669966
341.669795
341.669628
341.669466
341.669309
341.669157
341.669011
341.668872
341.668738
341.668607
341.668434
341.672748
341.67274
341.672714
341.672673
341.672617
341.672547
341.672464
341.672367
341.672258
341.672137
341.672007
341.671867
341.671721
341.671569
341.671411
341.671249
341.671083
341.670916
341.670747
341.670578
341.670409
341.670241
341.670075
341.669911
341.66975
341.669593
341.66944
341.669293
341.669151
341.669016
341.668888
341.668767
341.668653
341.668548
341.668451
341.668363
341.668283
341.668213
341.668148
341.668065
341.671178
341.67117
341.671143
341.6711
341.671043
341.670971
341.670888
341.670792
341.670686
341.67057
341.670447
341.670318
341.670183
341.670046
341.669906
341.669766
341.669626
341.669487
341.669351
341.669216
341.669086
341.668959
341.668836
341.668719
341.668608
341.668503
341.668405
341.668313
341.66823
341.668153
341.668085
341.668024
341.66797
341.667925
341.667887
341.667857
341.667833
341.667816
341.667802
341.667779
341.669194
341.66919
341.669171
341.66914
341.669098
341.669046
341.668986
341.668917
341.668842
341.668761
341.668676
341.668588
341.668499
341.668409
341.66832
341.668232
341.668148
341.668066
341.667989
341.667915
341.667847
341.667784
341.667726
341.667675
341.667629
341.66759
341.667556
341.667529
341.667508
341.667492
341.667481
341.667475
341.667473
341.667475
341.66748
341.667487
341.667496
341.667503
341.667507
341.667489
341.667323
341.667325
341.667319
341.667307
341.66729
341.667269
341.667244
341.667217
341.667188