/*--------------------------------*- C++ -*----------------------------------*\
  =========                 |
  \\      /  F ield         | OpenFOAM: The Open Source CFD Toolbox
   \\    /   O peration     | Website:  https://openfoam.org
    \\  /    A nd           | Version:  10
     \\/     M anipulation  |
\*---------------------------------------------------------------------------*/
FoamFile
{
    format      ascii;
    class       volVectorField;
    location    "0.5";
    object      U.gas;
}
// * * * * * * * * * * * * * * * * * * * * * * * * * * * * * * * * * * * * * //

dimensions      [0 1 -1 0 0 0 0];

internalField   nonuniform List<vector> 
14000
(
(2.02529534 -6.07694972e-06 -3.7368525e-17)
(2.02585169 -2.67837957e-06 1.65744607e-18)
(2.02597 -3.52617717e-06 8.30507944e-18)
(2.02570111 -7.1362098e-06 8.67223405e-18)
(2.02508573 -1.00921617e-05 4.00647341e-18)
(2.02413155 -1.26277349e-05 5.7901572e-17)
(2.02282514 -1.48085246e-05 8.39690905e-17)
(2.02113991 -1.6722676e-05 9.19365576e-17)
(2.01904409 -1.84741383e-05 8.11421617e-17)
(2.01650703 -2.0034071e-05 7.44955596e-17)
(2.01350102 -2.12924644e-05 6.89392934e-17)
(2.01000138 -2.21749023e-05 4.77075655e-17)
(2.00598631 -2.2610386e-05 3.41273903e-17)
(2.00143591 -2.26092769e-05 2.21515969e-17)
(1.99633069 -2.23103472e-05 1.02686942e-17)
(1.99064963 -2.18252583e-05 8.5054083e-18)
(1.98436794 -2.11691308e-05 1.62078044e-17)
(1.97745496 -2.03182334e-05 2.32114025e-17)
(1.96987236 -1.92136333e-05 2.98260731e-17)
(1.96157328 -1.77944437e-05 3.69647875e-17)
(1.95250307 -1.61419841e-05 3.57102254e-17)
(1.94260143 -1.44369802e-05 4.51696809e-17)
(1.93180342 -1.27998847e-05 3.93850877e-17)
(1.92003794 -1.13112161e-05 3.43802541e-17)
(1.90722477 -1.0033881e-05 3.03121487e-17)
(1.89327121 -8.9631318e-06 2.7240752e-17)
(1.87806767 -8.00387143e-06 2.41439237e-17)
(1.86148148 -7.10255417e-06 2.27708874e-17)
(1.843348 -6.26356404e-06 2.72872956e-17)
(1.82345768 -5.44389415e-06 2.7060261e-17)
(1.80153657 -4.65725879e-06 2.68097326e-17)
(1.7772162 -3.91247057e-06 2.61528641e-17)
(1.74998481 -3.13491036e-06 2.48778809e-17)
(1.71910468 -2.31308967e-06 2.5247177e-17)
(1.68346264 -1.49992737e-06 2.51648898e-17)
(1.64127922 -7.40403348e-07 2.4788984e-17)
(1.58948865 -1.02987085e-07 2.41673306e-17)
(1.52227553 3.59982724e-07 2.34713024e-17)
(1.4230492 5.3092466e-07 2.19949078e-17)
(1.18647481 2.56040567e-07 1.81270783e-17)
(2.02545698 -9.50555255e-06 1.12670489e-17)
(2.02601158 -1.92436643e-06 7.21879814e-18)
(2.0261306 3.31863065e-06 8.62681768e-17)
(2.02586105 5.48805996e-06 9.50187473e-17)
(2.02524362 7.426138e-06 1.3517638e-16)
(2.02428618 9.0715629e-06 1.672732e-16)
(2.02297553 1.04688278e-05 1.51318371e-16)
(2.02128528 1.16986399e-05 1.23844613e-16)
(2.01918384 1.28725729e-05 1.08027371e-16)
(2.01664071 1.39796986e-05 7.88913534e-17)
(2.01362835 1.49445813e-05 7.26304081e-17)
(2.01012221 1.57309224e-05 6.50533384e-17)
(2.00610062 1.62445974e-05 4.84101165e-17)
(2.00154377 1.64283007e-05 3.6996576e-17)
(1.99643226 1.63787016e-05 3.08740273e-17)
(1.99074509 1.61889542e-05 3.30772337e-17)
(1.98445751 1.58597466e-05 2.98463629e-17)
(1.97753886 1.53578558e-05 3.06141616e-17)
(1.96995079 1.46203638e-05 3.33582375e-17)
(1.96164642 1.35889903e-05 3.65440015e-17)
(1.95257116 1.23489635e-05 3.85408623e-17)
(1.94266475 1.10829812e-05 4.05915432e-17)
(1.9318623 9.90751075e-06 3.11173275e-17)
(1.92009276 8.89820517e-06 2.86984636e-17)
(1.90727595 8.12423423e-06 2.46749783e-17)
(1.89331919 7.58028692e-06 2.57775411e-17)
(1.87811291 7.16035209e-06 2.63230275e-17)
(1.86152447 6.8111212e-06 2.72988634e-17)
(1.84338928 6.5373803e-06 3.02017535e-17)
(1.8234978 6.29052076e-06 2.85138118e-17)
(1.80157613 6.07381518e-06 2.75846039e-17)
(1.77725584 5.86583909e-06 2.71028363e-17)
(1.75002524 5.55271189e-06 2.72371954e-17)
(1.71914666 5.06652226e-06 2.57850609e-17)
(1.683507 4.37891928e-06 2.4885202e-17)
(1.64132682 3.50064398e-06 2.42023639e-17)
(1.58954036 2.44318236e-06 2.34905799e-17)
(1.52233193 1.14219585e-06 2.25256102e-17)
(1.42311098 -2.66240015e-07 2.11283302e-17)
(1.18653977 -4.69016093e-07 1.75400103e-17)
(2.02545025 -4.79177868e-06 -1.11414793e-17)
(2.02600012 -3.75721088e-06 -6.89994973e-17)
(2.02611715 -5.68714653e-06 3.84823122e-17)
(2.02584619 -9.04764919e-06 9.27779668e-17)
(2.02522719 -1.17052596e-05 1.84173653e-16)
(2.02426769 -1.39032732e-05 1.74053996e-16)
(2.02295446 -1.57347382e-05 1.57328049e-16)
(2.02126119 -1.72986991e-05 1.15030219e-16)
(2.01915639 -1.86175316e-05 1.00822916e-16)
(2.01660965 -1.97007839e-05 8.32925341e-17)
(2.0135935 -2.06031993e-05 6.86719382e-17)
(2.01008351 -2.13731524e-05 7.47568091e-17)
(2.00605806 -2.19950837e-05 6.57490527e-17)
(2.00149743 -2.24298814e-05 6.06263283e-17)
(1.99638226 -2.26583538e-05 6.01820957e-17)
(1.9906916 -2.26732436e-05 5.19872066e-17)
(1.9844007 -2.24867593e-05 4.26528366e-17)
(1.9774789 -2.2121913e-05 3.70423439e-17)
(1.96988787 -2.15812286e-05 3.25850301e-17)
(1.96158075 -2.08307815e-05 2.80413941e-17)
(1.95250296 -1.98501354e-05 3.24348436e-17)
(1.94259429 -1.86805233e-05 2.59738433e-17)
(1.93178991 -1.73616858e-05 2.63366525e-17)
(1.92001881 -1.5907872e-05 2.64021316e-17)
(1.90720082 -1.43401328e-05 2.62764611e-17)
(1.89324332 -1.26714772e-05 2.66704474e-17)
(1.87803676 -1.0903884e-05 3.46484001e-17)
(1.86144853 -9.05442024e-06 3.69828833e-17)
(1.84331407 -7.146665e-06 3.47456327e-17)
(1.82342392 -5.20827233e-06 3.26397666e-17)
(1.80150421 -3.2913537e-06 3.12369104e-17)
(1.7771866 -1.46340919e-06 3.04641936e-17)
(1.74995951 2.07627028e-07 3.03366919e-17)
(1.71908546 1.67574553e-06 2.82896243e-17)
(1.68345158 2.89483784e-06 2.66809747e-17)
(1.64127878 3.71992586e-06 2.54171865e-17)
(1.58950167 3.97380927e-06 2.45206031e-17)
(1.52230485 3.5676031e-06 2.4214348e-17)
(1.42309997 2.47944767e-06 2.2717116e-17)
(1.18655696 8.78759148e-07 1.81065893e-17)
(2.02548763 -7.80991109e-06 -7.51443784e-17)
(2.02604081 -2.23651712e-06 -1.29642718e-16)
(2.02615626 -2.09886307e-07 -8.29421933e-17)
(2.02588307 -1.11346453e-06 -1.03780732e-17)
(2.02526142 -1.6807698e-06 6.77988157e-17)
(2.02429895 -2.20757747e-06 9.75307179e-17)
(2.02298243 -2.67078705e-06 1.3191164e-16)
(2.02128553 -2.9857707e-06 1.15820027e-16)
(2.0191768 -3.13267869e-06 9.87814213e-17)
(2.01662593 -3.07511242e-06 1.04275934e-16)
(2.01360556 -2.7862256e-06 9.37865066e-17)
(2.01009132 -2.33829443e-06 7.46954732e-17)
(2.0060617 -1.78017434e-06 6.67950667e-17)
(2.00149704 -1.09620582e-06 5.71672212e-17)
(1.99637801 -2.86311598e-07 4.51780663e-17)
(1.99068366 6.22266343e-07 2.82208152e-17)
(1.98438925 1.60236651e-06 3.26189976e-17)
(1.97746408 2.64351743e-06 3.32588306e-17)
(1.96986979 3.72734997e-06 3.23406109e-17)
(1.9615595 4.80207337e-06 3.12760418e-17)
(1.95247865 5.83186285e-06 3.13873803e-17)
(1.94256708 6.833069e-06 3.17899169e-17)
(1.93175999 7.80881496e-06 3.43153957e-17)
(1.91998642 8.73076804e-06 3.01031924e-17)
(1.90716623 9.56527839e-06 3.47680286e-17)
(1.89320681 1.02758065e-05 3.42474126e-17)
(1.87799864 1.08235816e-05 3.52731085e-17)
(1.86140912 1.11676112e-05 3.54913728e-17)
(1.8432737 1.12710461e-05 3.44402269e-17)
(1.82338288 1.11106887e-05 3.2998808e-17)
(1.8014628 1.06899869e-05 3.14517743e-17)
(1.7771451 1.00476778e-05 2.97791033e-17)
(1.74991822 9.23840793e-06 2.7706996e-17)
(1.71904464 8.3035104e-06 2.74996959e-17)
(1.68341157 7.27575293e-06 2.69200482e-17)
(1.64123998 6.19399953e-06 2.62809237e-17)
(1.58946459 5.17231785e-06 2.58234556e-17)
(1.52227014 4.4691622e-06 2.57242902e-17)
(1.42306893 3.72051211e-06 2.34611826e-17)
(1.18653682 1.59152492e-06 1.87228744e-17)
(2.02550455 -1.00189244e-05 2.33856983e-17)
(2.02605565 -4.0108774e-06 4.71396866e-17)
(2.02616777 -2.44944094e-06 2.04433025e-17)
(2.02589096 -4.24125769e-06 3.10312764e-17)
(2.02526573 -5.46863868e-06 -4.11560711e-18)
(2.02429969 -6.52674389e-06 3.80006081e-17)
(2.02297949 -7.45207384e-06 5.81417489e-17)
(2.02127875 -8.24412158e-06 7.69954329e-17)
(2.01916601 -8.90259566e-06 8.03859937e-17)
(2.01661101 -9.45946995e-06 7.66144716e-17)
(2.01358647 -9.90954555e-06 6.20547258e-17)
(2.01006809 -1.01667319e-05 3.65219953e-17)
(2.00603441 -1.02197043e-05 3.58843739e-17)
(2.00146582 -1.01573495e-05 2.682291e-17)
(1.99634301 -1.00471918e-05 2.64932715e-17)
(1.99064503 -9.89684186e-06 2.08321432e-17)
(1.98434711 -9.69795292e-06 1.83467393e-17)
(1.97741852 -9.46550581e-06 2.41474076e-17)
(1.96982086 -9.21054339e-06 2.77595746e-17)
(1.96150725 -8.92024206e-06 3.01976133e-17)
(1.95242312 -8.57987766e-06 3.21918802e-17)
(1.94250836 -8.18771995e-06 3.44813307e-17)
(1.93169823 -7.74749219e-06 3.61276973e-17)
(1.91992177 -7.25400541e-06 3.17653045e-17)
(1.90709889 -6.68994585e-06 2.71063452e-17)
(1.89313697 -6.04366248e-06 2.81545393e-17)
(1.87792649 -5.30702482e-06 2.08275823e-17)
(1.86133482 -4.47019627e-06 2.49892554e-17)
(1.84319738 -3.55127895e-06 2.74941242e-17)
(1.8233046 -2.60688699e-06 2.86400372e-17)
(1.80138257 -1.68231202e-06 2.87949575e-17)
(1.7770628 -7.92527474e-07 2.83511149e-17)
(1.74983361 4.13345526e-08 2.76165039e-17)
(1.7189574 8.074689e-07 2.69897788e-17)
(1.68332127 1.5512084e-06 2.62983331e-17)
(1.64114619 2.33800312e-06 2.54227259e-17)
(1.5893671 3.26870729e-06 2.40717792e-17)
(1.52216941 4.52739803e-06 2.38339745e-17)
(1.42296722 5.01688994e-06 2.22170378e-17)
(1.18644763 2.36933843e-06 1.82762797e-17)
(2.02553753 -9.44285881e-06 8.4138297e-17)
(2.02608665 -3.42756492e-06 9.60053562e-17)
(2.0261951 -1.72184093e-06 1.50515529e-17)
(2.02591403 -3.31729927e-06 2.63166414e-17)
(2.02528487 -4.3483219e-06 -1.787975e-17)
(2.02431515 -5.18020712e-06 -8.73546214e-18)
(2.02299138 -5.86610604e-06 -4.31130579e-18)
(2.02128704 -6.41464989e-06 2.21727999e-17)
(2.01917066 -6.82640674e-06 3.31441208e-17)
(2.01661198 -7.10228345e-06 3.14749343e-17)
(2.01358377 -7.25910088e-06 2.12930804e-17)
(2.0100618 -7.33284007e-06 2.04834354e-17)
(2.00602464 -7.33239792e-06 2.01900933e-17)
(2.00145273 -7.22255831e-06 1.94052616e-17)
(1.99632675 -6.9862798e-06 1.98116531e-17)
(1.99062574 -6.65112583e-06 2.02415657e-17)
(1.98432488 -6.23913747e-06 2.08868165e-17)
(1.97739342 -5.74724248e-06 2.34591689e-17)
(1.9697929 -5.16744555e-06 2.65387211e-17)
(1.96147641 -4.49999725e-06 2.954691e-17)
(1.95238941 -3.76065573e-06 3.22304634e-17)
(1.94247179 -2.97360919e-06 3.43862566e-17)
(1.93165887 -2.16200539e-06 3.56364316e-17)
(1.91987972 -1.35384469e-06 3.60590474e-17)
(1.90705425 -5.83253447e-07 2.98580792e-17)
(1.89308986 1.22508241e-07 2.55146808e-17)
(1.877877 7.36400561e-07 2.19395636e-17)
(1.86128301 1.23254202e-06 2.02014133e-17)
(1.84314323 1.61357754e-06 1.89742748e-17)
(1.82324803 1.91912371e-06 2.15732603e-17)
(1.80132334 2.18838018e-06 2.35500892e-17)
(1.77700054 2.44243356e-06 2.47356815e-17)
(1.74976777 2.71474983e-06 2.52478817e-17)
(1.71888726 3.04939865e-06 2.52481368e-17)
(1.68324601 3.46799906e-06 2.48626779e-17)
(1.6410651 3.98563309e-06 2.41211182e-17)
(1.58928002 4.70444926e-06 2.29829089e-17)
(1.52207758 5.77247561e-06 2.14344393e-17)
(1.42287542 5.89049353e-06 2.08208035e-17)
(1.18637778 2.67058047e-06 1.7651552e-17)
(2.02559038 -9.68411992e-06 1.39579708e-16)
(2.02613766 -3.81507422e-06 2.21352502e-16)
(2.02624204 -2.26293595e-06 1.19773898e-16)
(2.02595639 -4.00510095e-06 9.0216844e-17)
(2.02532294 -5.1947774e-06 9.50257867e-17)
(2.02434929 -6.18441863e-06 4.58571886e-17)
(2.02302178 -7.03113413e-06 2.71839786e-17)
(2.02131378 -7.74884174e-06 2.69048976e-17)
(2.01919375 -8.34203122e-06 3.35727179e-17)
(2.01663142 -8.81411359e-06 4.44242008e-17)
(2.01359957 -9.16843595e-06 4.04621304e-17)
(2.01007406 -9.4099868e-06 4.59496184e-17)
(2.00603348 -9.55567269e-06 4.11651742e-17)
(2.00145829 -9.62682915e-06 4.33763232e-17)
(1.99632918 -9.62488606e-06 3.65930596e-17)
(1.99062516 -9.53838132e-06 3.51468464e-17)
(1.98432137 -9.3679841e-06 3.80338111e-17)
(1.97738702 -9.12638119e-06 3.23902884e-17)
(1.96978361 -8.82522799e-06 2.92816749e-17)
(1.96146418 -8.47050343e-06 2.7170873e-17)
(1.95237421 -8.05605237e-06 2.48611176e-17)
(1.94245363 -7.57154484e-06 2.13486401e-17)
(1.93163779 -7.02175975e-06 2.58148679e-17)
(1.91985581 -6.42606215e-06 3.46921918e-17)
(1.9070276 -5.80633891e-06 4.32460544e-17)
(1.89306056 -5.17584067e-06 4.30615609e-17)
(1.87784514 -4.53780411e-06 3.7973421e-17)
(1.86124864 -3.89090962e-06 2.86616013e-17)
(1.84310632 -3.23555313e-06 2.13062989e-17)
(1.82320843 -2.56721782e-06 2.13242035e-17)
(1.80128077 -1.8599933e-06 2.187663e-17)
(1.77695452 -1.07727764e-06 2.25676562e-17)
(1.7497176 -1.76086306e-07 2.31750211e-17)
(1.71883204 8.95785377e-07 2.35751908e-17)
(1.68318476 2.17320171e-06 2.37358668e-17)
(1.64099703 3.63147477e-06 2.37208025e-17)
(1.5892051 5.12436244e-06 2.38798669e-17)
(1.52199763 6.47028613e-06 2.07089054e-17)
(1.4227967 6.29770302e-06 1.86951745e-17)
(1.18632555 2.73858329e-06 1.62028011e-17)
(2.02564643 -9.24271855e-06 9.28381065e-17)
(2.02619192 -3.69711424e-06 2.21065695e-16)
(2.02629203 -2.26349581e-06 2.13346391e-16)
(2.02600171 -3.95312363e-06 1.53803146e-16)
(2.02536388 -5.10446109e-06 1.19346819e-16)
(2.02438627 -6.05313538e-06 8.72541272e-17)
(2.02305509 -6.85678577e-06 6.70308994e-17)
(2.02134357 -7.53081402e-06 5.88010057e-17)
(2.01922005 -8.07996719e-06 6.06758208e-17)
(2.01665427 -8.50667326e-06 6.98050345e-17)
(2.01361904 -8.81322583e-06 6.05916714e-17)
(2.01009023 -9.00349916e-06 5.59817158e-17)
(2.0060465 -9.07332868e-06 5.26692396e-17)
(2.0014683 -9.01714691e-06 5.14041899e-17)
(1.99633634 -8.85805712e-06 5.09757393e-17)
(1.9906296 -8.62243367e-06 5.3197525e-17)
(1.98432317 -8.28731872e-06 4.54451879e-17)
(1.97738622 -7.82103674e-06 3.90973694e-17)
(1.96978018 -7.24002907e-06 3.44029529e-17)
(1.96145809 -6.56515474e-06 3.12714606e-17)
(1.95236542 -5.77572866e-06 2.96926195e-17)
(1.94244214 -4.83952336e-06 3.00612856e-17)
(1.93162363 -3.74494473e-06 3.3465829e-17)
(1.91983903 -2.49158726e-06 3.92415232e-17)
(1.90700829 -1.07318595e-06 4.56402871e-17)
(1.89303878 4.83586965e-07 4.30145931e-17)
(1.87782095 2.07310393e-06 3.89679049e-17)
(1.86122204 3.54848352e-06 3.39405054e-17)
(1.84307725 4.81129831e-06 2.89451653e-17)
(1.82317671 5.8235447e-06 2.66432767e-17)
(1.80124604 6.5542662e-06 2.49474813e-17)
(1.77691622 6.98230493e-06 2.39815878e-17)
(1.74967494 7.11172788e-06 2.35739748e-17)
(1.71878401 6.97777491e-06 2.3481156e-17)
(1.68313025 6.70422427e-06 2.3537416e-17)
(1.64093516 6.47193086e-06 2.3640371e-17)
(1.58913585 6.53125818e-06 2.38135145e-17)
(1.52192294 7.03931095e-06 2.17187851e-17)
(1.42272304 6.56673753e-06 1.94934808e-17)
(1.18627852 2.84917146e-06 1.56196782e-17)
(2.02569817 -9.09283406e-06 -1.45619172e-17)
(2.02624116 -2.95531419e-06 -8.24441664e-17)
(2.02633665 -9.92548011e-07 -1.46119241e-17)
(2.02604143 -2.26235809e-06 3.6475377e-17)
(2.02539906 -2.95841553e-06 3.65166854e-17)
(2.02441734 -3.45707323e-06 5.58309157e-17)
(2.02308237 -3.82156743e-06 5.94396557e-17)
(2.02136718 -4.07035612e-06 5.71400197e-17)
(2.01924005 -4.210125e-06 5.22550871e-17)
(2.01667069 -4.24517905e-06 4.37508568e-17)
(2.01363192 -4.18123269e-06 4.98102649e-17)
(2.01009966 -4.02770403e-06 5.13471248e-17)
(2.00605261 -3.80036411e-06 5.12711728e-17)
(2.00147123 -3.52078595e-06 5.0638952e-17)
(1.99633624 -3.20188952e-06 4.99565835e-17)
(1.99062657 -2.86153812e-06 4.86241702e-17)
(1.98431731 -2.54674037e-06 4.50370515e-17)
(1.97737754 -2.28636072e-06 4.15970338e-17)
(1.96976867 -2.06764177e-06 3.91366411e-17)
(1.9614437 -1.88427566e-06 3.81063824e-17)
(1.95234811 -1.75567146e-06 3.87807925e-17)
(1.94242192 -1.72149558e-06 4.13234932e-17)
(1.93160055 -1.81837939e-06 3.66330472e-17)
(1.91981318 -2.05051723e-06 3.2575692e-17)
(1.90697976 -2.37459299e-06 2.8269934e-17)
(1.89300769 -2.73472961e-06 2.53605975e-17)
(1.87778738 -3.05860409e-06 2.77887586e-17)
(1.86118604 -3.23706845e-06 2.82489133e-17)
(1.84303878 -3.19759326e-06 2.75391288e-17)
(1.82313561 -2.93551358e-06 2.67028743e-17)
(1.80120198 -2.5066931e-06 2.57449399e-17)
(1.77686862 -1.93972431e-06 2.48488455e-17)
(1.74962294 -1.1645924e-06 2.4090291e-17)
(1.71872653 -9.65253573e-08 2.34823241e-17)
(1.68306606 1.25963243e-06 2.29731164e-17)
(1.64086324 2.76997662e-06 2.24245168e-17)
(1.589056 4.31552637e-06 2.1429007e-17)
(1.52183694 5.81355743e-06 2.10395086e-17)
(1.42263699 5.85145389e-06 2.00339521e-17)
(1.18621714 2.57023364e-06 1.60231644e-17)
(2.02574507 -9.91757302e-06 3.33398321e-18)
(2.02628572 -4.37008129e-06 -1.76787251e-17)
(2.02637666 -3.08041553e-06 -1.15449692e-17)
(2.02607659 -5.00577766e-06 8.81305485e-18)
(2.02542969 -6.39213062e-06 2.46943701e-17)
(2.0244439 -7.57226675e-06 3.81768209e-17)
(2.02310516 -8.60290301e-06 4.55541504e-17)
(2.02138636 -9.49989571e-06 4.75785153e-17)
(2.01925567 -1.02662994e-05 4.60683761e-17)
(2.01668278 -1.09041312e-05 4.36643076e-17)
(2.01364053 -1.14300763e-05 4.57310839e-17)
(2.01010489 -1.18702215e-05 4.7505743e-17)
(2.00605458 -1.22267367e-05 4.81951708e-17)
(2.0014701 -1.24758833e-05 4.78861141e-17)
(1.99633217 -1.25968161e-05 4.66721013e-17)
(1.9906197 -1.26067562e-05 4.50711705e-17)
(1.98430771 -1.2534151e-05 4.35553384e-17)
(1.97736526 -1.2381925e-05 4.19355831e-17)
(1.96975371 -1.21479896e-05 4.05663746e-17)
(1.96142603 -1.18056551e-05 3.95186144e-17)
(1.95232771 -1.13097836e-05 3.86017994e-17)
(1.9423988 -1.06415074e-05 3.729671e-17)
(1.93157478 -9.79637163e-06 3.46698003e-17)
(1.91978485 -8.76195354e-06 3.16109303e-17)
(1.906949 -7.56080254e-06 2.88539483e-17)
(1.89297464 -6.24010842e-06 2.75641803e-17)
(1.87775214 -4.86529613e-06 2.73274565e-17)
(1.86114869 -3.508279e-06 2.73380806e-17)
(1.84299932 -2.18214128e-06 2.73603112e-17)
(1.82309388 -8.82952122e-07 2.63127969e-17)
(1.80115764 3.76063865e-07 2.53808341e-17)
(1.77682109 1.55105902e-06 2.46030559e-17)
(1.74957134 2.5694856e-06 2.38459179e-17)
(1.71866969 3.43908687e-06 2.31040023e-17)
(1.68300264 4.21589118e-06 2.23773223e-17)
(1.64079206 4.93915728e-06 2.1626548e-17)
(1.58897669 5.69502255e-06 2.05635852e-17)
(1.52175114 6.50450644e-06 2.00469161e-17)
(1.4225506 6.05320968e-06 1.89036585e-17)
(1.18615331 2.58346272e-06 1.56419079e-17)
(2.0258053 -8.25897272e-06 -3.01265757e-17)
(2.02634437 -3.06913803e-06 2.58369413e-17)
(2.02643102 -1.68324993e-06 6.32259521e-17)
(2.02612617 -3.15679479e-06 2.81454963e-17)
(2.02547479 -4.08092e-06 3.76695219e-18)
(2.02448496 -4.78643141e-06 2.25949213e-17)
(2.0231425 -5.33663018e-06 3.41151821e-17)
(2.02142014 -5.75107707e-06 4.07264488e-17)
(2.01928594 -6.03687494e-06 4.39951421e-17)
(2.01670958 -6.19406473e-06 4.52398839e-17)
(2.01366391 -6.20575155e-06 4.50107278e-17)
(2.01012494 -6.0507138e-06 4.35488774e-17)
(2.00607144 -5.74796369e-06 4.04048862e-17)
(2.00148394 -5.3403079e-06 3.49431878e-17)
(1.99634313 -4.84803008e-06 4.16157647e-17)
(1.99062792 -4.24971469e-06 4.60198739e-17)
(1.9843133 -3.52357234e-06 3.69302339e-17)
(1.97736824 -2.69467808e-06 3.86656555e-17)
(1.96975406 -1.78732582e-06 3.88975317e-17)
(1.96142371 -8.32946838e-07 3.81532697e-17)
(1.95232269 9.63575699e-08 3.67289059e-17)
(1.94239108 9.43817104e-07 3.47082647e-17)
(1.93156442 1.68831731e-06 3.21255058e-17)
(1.91977193 2.33583202e-06 2.88001443e-17)
(1.90693364 2.88394221e-06 2.45758255e-17)
(1.89295694 3.32126943e-06 1.89731035e-17)
(1.87773223 3.68554277e-06 1.89122948e-17)
(1.86112664 4.01500121e-06 2.43089162e-17)
(1.8429751 4.2846857e-06 2.90948933e-17)
(1.82306737 4.4692049e-06 2.74976699e-17)
(1.8011285 4.61482068e-06 2.61705405e-17)
(1.77678872 4.79061203e-06 2.50585525e-17)
(1.74953483 5.02730186e-06 2.41051927e-17)
(1.71862779 5.29562843e-06 2.32835672e-17)
(1.68295391 5.57520393e-06 2.25831904e-17)
(1.64073513 5.89182921e-06 2.19912632e-17)
(1.58891098 6.30718853e-06 2.14900075e-17)
(1.52167802 6.8588587e-06 2.09912925e-17)
(1.42247543 6.29438833e-06 1.99681111e-17)
(1.18609696 2.6968694e-06 1.59932858e-17)
(2.02586283 -9.12075942e-06 -1.59091414e-17)
(2.02639985 -3.50166099e-06 -7.22240724e-17)
(2.02648196 -1.95191211e-06 -5.46342e-17)
(2.02617214 -3.48571745e-06 -1.42895383e-17)
(2.02551615 -4.45776268e-06 3.51497815e-19)
(2.02452218 -5.22668677e-06 1.30627022e-17)
(2.02317592 -5.85556245e-06 2.2018234e-17)
(2.02144991 -6.36181729e-06 2.67501796e-17)
(2.01931213 -6.75040947e-06 2.69890387e-17)
(2.01673221 -7.02374743e-06 2.16981128e-17)
(2.01368302 -7.1853245e-06 2.98717846e-17)
(2.01014063 -7.24103316e-06 3.26377088e-17)
(2.00608383 -7.1891447e-06 3.25203971e-17)
(2.00149319 -7.03380219e-06 3.10856587e-17)
(1.9963494 -6.80255843e-06 2.99577673e-17)
(1.99063134 -6.52678731e-06 2.61256292e-17)
(1.98431395 -6.22407248e-06 2.98991452e-17)
(1.97736615 -5.88916481e-06 3.21133803e-17)
(1.96974922 -5.49987573e-06 3.29298773e-17)
(1.96141606 -5.02543697e-06 3.25576272e-17)
(1.95231218 -4.42775822e-06 3.11558805e-17)
(1.94237772 -3.67972113e-06 2.88280125e-17)
(1.93154826 -2.7887161e-06 2.56075583e-17)
(1.91975308 -1.82299552e-06 2.1395142e-17)
(1.9069122 -8.60296679e-07 1.60441928e-17)
(1.89293305 6.1442153e-08 1.72400508e-17)
(1.87770601 9.20334933e-07 1.888285e-17)
(1.86109816 1.6998702e-06 2.11294636e-17)
(1.84294437 2.3858635e-06 2.32734538e-17)
(1.82303424 2.9689679e-06 2.42397837e-17)
(1.80109261 3.44884101e-06 2.4606127e-17)
(1.77674945 3.83407213e-06 2.43076074e-17)
(1.74949119 4.14080657e-06 2.37493234e-17)
(1.71857844 4.3928898e-06 2.30823697e-17)
(1.68289722 4.6266627e-06 2.23406302e-17)
(1.64066952 4.88627866e-06 2.14933476e-17)
(1.58883556 5.28464401e-06 2.0525863e-17)
(1.52159381 6.01921075e-06 2.03216343e-17)
(1.42238718 5.89794989e-06 1.9530843e-17)
(1.18602448 2.63427641e-06 1.62823998e-17)
(2.02591033 -9.30534258e-06 5.72518934e-17)
(2.02644465 -3.40742157e-06 -9.60161537e-18)
(2.0265219 -1.67591905e-06 -5.34900855e-17)
(2.02620694 -3.11559469e-06 -1.43546972e-17)
(2.02554629 -3.9723923e-06 2.19663148e-17)
(2.0245482 -4.62651617e-06 1.65311766e-17)
(2.02319817 -5.14044031e-06 1.57928228e-17)
(2.02146858 -5.53015794e-06 1.58953231e-17)
(2.01932729 -5.79971398e-06 1.61021128e-17)
(2.01674389 -5.9506716e-06 1.76042679e-17)
(2.01369129 -5.98586323e-06 2.24975338e-17)
(2.01014556 -5.91134004e-06 2.82429858e-17)
(2.00608558 -5.73665136e-06 3.40006639e-17)
(2.00149191 -5.47350421e-06 4.01739117e-17)
(1.99634524 -5.13517463e-06 3.22764391e-17)
(1.99062444 -4.73738854e-06 2.58820499e-17)
(1.98430437 -4.29386895e-06 3.48135123e-17)
(1.97735393 -3.8085401e-06 3.2762029e-17)
(1.96973432 -3.27945381e-06 3.16195465e-17)
(1.96139842 -2.70003839e-06 3.06764926e-17)
(1.95229174 -2.05839558e-06 2.95462088e-17)
(1.94235447 -1.36238763e-06 2.80753438e-17)
(1.93152223 -6.37588395e-07 2.6715047e-17)
(1.91972432 9.99203863e-08 2.60604595e-17)
(1.90688082 8.19383204e-07 2.69516572e-17)
(1.89289915 1.47109368e-06 3.06514926e-17)
(1.87766968 2.02712853e-06 2.97239497e-17)
(1.86105946 2.4547896e-06 2.39335532e-17)
(1.84290328 2.70874457e-06 1.90275792e-17)
(1.82299061 2.75793129e-06 2.03048478e-17)
(1.8010461 2.59627505e-06 2.11475288e-17)
(1.77669941 2.30117766e-06 2.16025453e-17)
(1.74943664 2.06917449e-06 2.17334553e-17)
(1.71851801 2.0961312e-06 2.15717494e-17)
(1.68282923 2.50025783e-06 2.11389087e-17)
(1.64059228 3.31271412e-06 2.04572798e-17)
(1.58874804 4.50783459e-06 1.95396034e-17)
(1.52149686 6.00619704e-06 1.85069405e-17)
(1.42228534 6.28333855e-06 1.72471725e-17)
(1.18593775 2.85983912e-06 1.50119665e-17)
(2.02595378 -9.90388282e-06 -5.44553179e-17)
(2.02648498 -3.6698373e-06 -5.03256726e-17)
(2.02655713 -1.79286812e-06 3.23145444e-17)
(2.02623688 -3.26587452e-06 3.95381346e-17)
(2.02557149 -4.1502803e-06 6.15393116e-17)
(2.02456921 -4.83272571e-06 4.46036383e-17)
(2.02321535 -5.37855247e-06 3.92273142e-17)
(2.02148212 -5.80804508e-06 4.28810448e-17)
(2.01933724 -6.12787289e-06 5.59596997e-17)
(2.01675028 -6.34053771e-06 5.81563662e-17)
(2.01369417 -6.45054344e-06 5.1192154e-17)
(2.01014502 -6.46722513e-06 3.72094832e-17)
(2.00608174 -6.40516505e-06 2.84616988e-17)
(2.00148493 -6.28879584e-06 1.91198254e-17)
(1.99633526 -6.15093103e-06 1.93555634e-17)
(1.99061158 -6.01600886e-06 3.08538101e-17)
(1.98428871 -5.89874184e-06 3.04718807e-17)
(1.97733548 -5.81899072e-06 2.90529197e-17)
(1.96971305 -5.78310613e-06 2.67459317e-17)
(1.96137427 -5.77913605e-06 2.34061187e-17)
(1.95226467 -5.83640289e-06 1.87417212e-17)
(1.94232449 -5.97766171e-06 2.19503705e-17)
(1.93148939 -6.12529223e-06 2.39730064e-17)
(1.91968873 -6.16949181e-06 2.54691862e-17)
(1.90684259 -6.0414199e-06 2.67748602e-17)
(1.89285841 -5.70435385e-06 2.77418488e-17)
(1.87762655 -5.15764502e-06 2.77930481e-17)
(1.86101402 -4.39537247e-06 2.73410347e-17)
(1.84285552 -3.40571308e-06 2.75199046e-17)
(1.8229404 -2.2241852e-06 2.45542979e-17)
(1.8009931 -9.63864306e-07 2.26790365e-17)
(1.77664299 2.28751305e-07 2.16319266e-17)
(1.74937583 1.22317105e-06 2.09828901e-17)
(1.71845145 2.01552548e-06 2.04797662e-17)
(1.68275526 2.69172158e-06 1.99769297e-17)
(1.64050923 3.32305625e-06 1.9381705e-17)
(1.58865488 4.11038903e-06 1.86370741e-17)
(1.52139445 5.33938286e-06 1.76962119e-17)
(1.42217836 5.73518341e-06 1.65396833e-17)
(1.18584686 2.67058152e-06 1.40864646e-17)
(2.025998 -1.02357225e-05 1.38790533e-17)
(2.02652632 -4.51168081e-06 1.91079873e-17)
(2.02659344 -3.11152967e-06 3.64190787e-17)
(2.02626798 -4.97812542e-06 5.16421619e-17)
(2.02559792 -6.28319894e-06 6.0025498e-17)
(2.02459155 -7.37685642e-06 5.926268e-17)
(2.02323399 -8.31481224e-06 5.88741332e-17)
(2.02149724 -9.10882111e-06 6.08862418e-17)
(2.01934894 -9.76061434e-06 6.33941692e-17)
(2.01675859 -1.02698839e-05 6.12944498e-17)
(2.01369914 -1.06331718e-05 5.38186609e-17)
(2.01014675 -1.08468099e-05 4.34909103e-17)
(2.00608037 -1.0910769e-05 3.42249167e-17)
(2.00148059 -1.08224971e-05 2.75346511e-17)
(1.99632813 -1.05733977e-05 2.54621505e-17)
(1.99060176 -1.01600605e-05 2.6538325e-17)
(1.98427629 -9.56817102e-06 2.63059022e-17)
(1.97732047 -8.77227975e-06 2.53371713e-17)
(1.96969541 -7.77559993e-06 2.37828951e-17)
(1.96135393 -6.60950488e-06 2.20675095e-17)
(1.95224157 -5.31181634e-06 2.0888407e-17)
(1.94229861 -3.91166244e-06 2.13478714e-17)
(1.93146079 -2.49051818e-06 2.24072337e-17)
(1.91965748 -1.18330026e-06 2.356014e-17)
(1.9068088 -7.21967441e-08 2.45536284e-17)
(1.89282219 8.48961028e-07 2.52484332e-17)
(1.87758802 1.62739751e-06 2.56623678e-17)
(1.86097326 2.2485925e-06 2.57732992e-17)
(1.84281254 2.63934966e-06 2.54621907e-17)
(1.82289508 2.77294801e-06 2.44901253e-17)
(1.80094511 2.72381034e-06 2.33221385e-17)
(1.77659174 2.62910874e-06 2.21890029e-17)
(1.74932038 2.61180753e-06 2.11852148e-17)
(1.71839048 2.73314261e-06 2.03253396e-17)
(1.6826872 3.05024312e-06 1.95685952e-17)
(1.64043248 3.637273e-06 1.88506919e-17)
(1.58856852 4.56937895e-06 1.81033219e-17)
(1.52129947 5.89681852e-06 1.72454111e-17)
(1.42207977 6.1748774e-06 1.60922326e-17)
(1.18576593 2.82804981e-06 1.34023475e-17)
(2.02604571 -9.20871274e-06 9.74822851e-17)
(2.02657101 -3.05505392e-06 1.00787903e-16)
(2.02663299 -1.07594712e-06 1.00421893e-17)
(2.02630227 -2.31709121e-06 1.19597595e-17)
(2.02562751 -2.97467203e-06 1.9098254e-18)
(2.02461701 -3.44335474e-06 2.46349572e-17)
(2.02325572 -3.79245038e-06 3.27105976e-17)
(2.02151544 -4.04605608e-06 2.93762327e-17)
(2.01936366 -4.21443001e-06 1.55742114e-17)
(2.01676988 -4.29776878e-06 1.25878318e-17)
(2.01370705 -4.2956621e-06 1.81817084e-17)
(2.01015137 -4.20770865e-06 3.08885502e-17)
(2.00608181 -4.00780484e-06 3.80108681e-17)
(2.00147901 -3.68507224e-06 4.49771813e-17)
(1.99632366 -3.30253887e-06 4.02978243e-17)
(1.99059453 -2.9121165e-06 2.51478389e-17)
(1.98426635 -2.52817793e-06 2.4992055e-17)
(1.97730782 -2.18911843e-06 2.5354134e-17)
(1.96968001 -1.92863732e-06 2.6352309e-17)
(1.96133571 -1.7599928e-06 2.83762009e-17)
(1.95222048 -1.66158184e-06 3.19410342e-17)
(1.94227463 -1.59530991e-06 2.7934949e-17)
(1.93143396 -1.51842362e-06 2.55802723e-17)
(1.91962787 -1.40738821e-06 2.41966237e-17)
(1.90677652 -1.27680774e-06 2.32492894e-17)
(1.89278738 -1.14340336e-06 2.23392927e-17)
(1.87755078 -1.01184417e-06 2.11793592e-17)
(1.8609337 -8.33436738e-07 1.94545673e-17)
(1.84277069 -5.71520256e-07 1.71280928e-17)
(1.82285085 -2.41669763e-07 1.85992068e-17)
(1.80089823 1.58679622e-07 1.94954756e-17)
(1.77654167 6.12284248e-07 1.97891164e-17)
(1.74926625 1.08124284e-06 1.97065952e-17)
(1.71833105 1.56552509e-06 1.93794397e-17)
(1.68262095 2.12960958e-06 1.89008074e-17)
(1.6403579 2.87815117e-06 1.83181464e-17)
(1.58848475 3.93711536e-06 1.76344796e-17)
(1.52120753 5.41773286e-06 1.68007836e-17)
(1.42198465 5.8886238e-06 1.56127679e-17)
(1.18568908 2.73609883e-06 1.27145531e-17)
(2.02608469 -1.06924214e-05 -4.56134736e-17)
(2.02660646 -4.2803547e-06 -2.82550707e-17)
(2.02666314 -2.44131778e-06 4.8033378e-17)
(2.02632709 -4.12777048e-06 4.20368393e-17)
(2.0256476 -5.24095303e-06 4.85637103e-17)
(2.02463297 -6.17067435e-06 2.52256895e-17)
(2.02326792 -6.97728568e-06 8.17663063e-18)
(2.02152405 -7.67325592e-06 2.18000988e-17)
(2.01936876 -8.26193659e-06 3.50319653e-17)
(2.0167715 -8.75090576e-06 3.17047224e-17)
(2.01370524 -9.14975531e-06 3.86233491e-17)
(2.01014621 -9.47642175e-06 3.34829053e-17)
(2.00607343 -9.78169952e-06 3.10034891e-17)
(2.00146756 -1.01022024e-05 2.73764664e-17)
(1.99630929 -1.0395102e-05 3.46250188e-17)
(1.99057735 -1.06225425e-05 3.92858287e-17)
(1.98424646 -1.07814194e-05 3.38047809e-17)
(1.97728524 -1.08194467e-05 3.0866735e-17)
(1.96965472 -1.06705331e-05 2.95795428e-17)
(1.96130766 -1.0328656e-05 2.91857889e-17)
(1.95218963 -9.80093291e-06 2.88855901e-17)
(1.942241 -9.09923122e-06 2.76098445e-17)
(1.9313976 -8.28914355e-06 2.61490333e-17)
(1.9195889 -7.41883502e-06 2.4841833e-17)
(1.90673505 -6.49477647e-06 2.38065834e-17)
(1.89274354 -5.55510257e-06 2.31043834e-17)
(1.87750472 -4.67186007e-06 2.28518809e-17)
(1.86088551 -3.90596888e-06 2.33348907e-17)
(1.84272042 -3.24073837e-06 2.50598831e-17)
(1.82279841 -2.60847085e-06 2.23836602e-17)
(1.80084336 -1.96881737e-06 2.0881961e-17)
(1.77648385 -1.30376588e-06 2.00065329e-17)
(1.74920464 -5.9480487e-07 1.94061417e-17)
(1.71826447 1.89847503e-07 1.89000447e-17)
(1.68254793 1.09897777e-06 1.83965553e-17)
(1.640277 2.18077613e-06 1.7845746e-17)